# vtk DataFile Version 3.0
#This file was generated by the deal.II library on 2021/2/11 at 23:44:19
ASCII
DATASET UNSTRUCTURED_GRID

POINTS 28800 double
0 -0.5 0
0.0166667 -0.5 0
0 -0.483333 0
0.0166667 -0.483333 0
0.0166667 -0.5 0
0.0333333 -0.5 0
0.0166667 -0.483333 0
0.0333333 -0.483333 0
0.0333333 -0.5 0
0.05 -0.5 0
0.0333333 -0.483333 0
0.05 -0.483333 0
0.05 -0.5 0
0.0666667 -0.5 0
0.05 -0.483333 0
0.0666667 -0.483333 0
0.0666667 -0.5 0
0.0833333 -0.5 0
0.0666667 -0.483333 0
0.0833333 -0.483333 0
0.0833333 -0.5 0
0.1 -0.5 0
0.0833333 -0.483333 0
0.1 -0.483333 0
0.1 -0.5 0
0.116667 -0.5 0
0.1 -0.483333 0
0.116667 -0.483333 0
0.116667 -0.5 0
0.133333 -0.5 0
0.116667 -0.483333 0
0.133333 -0.483333 0
0.133333 -0.5 0
0.15 -0.5 0
0.133333 -0.483333 0
0.15 -0.483333 0
0.15 -0.5 0
0.166667 -0.5 0
0.15 -0.483333 0
0.166667 -0.483333 0
0.166667 -0.5 0
0.183333 -0.5 0
0.166667 -0.483333 0
0.183333 -0.483333 0
0.183333 -0.5 0
0.2 -0.5 0
0.183333 -0.483333 0
0.2 -0.483333 0
0.2 -0.5 0
0.216667 -0.5 0
0.2 -0.483333 0
0.216667 -0.483333 0
0.216667 -0.5 0
0.233333 -0.5 0
0.216667 -0.483333 0
0.233333 -0.483333 0
0.233333 -0.5 0
0.25 -0.5 0
0.233333 -0.483333 0
0.25 -0.483333 0
0.25 -0.5 0
0.266667 -0.5 0
0.25 -0.483333 0
0.266667 -0.483333 0
0.266667 -0.5 0
0.283333 -0.5 0
0.266667 -0.483333 0
0.283333 -0.483333 0
0.283333 -0.5 0
0.3 -0.5 0
0.283333 -0.483333 0
0.3 -0.483333 0
0.3 -0.5 0
0.316667 -0.5 0
0.3 -0.483333 0
0.316667 -0.483333 0
0.316667 -0.5 0
0.333333 -0.5 0
0.316667 -0.483333 0
0.333333 -0.483333 0
0.333333 -0.5 0
0.35 -0.5 0
0.333333 -0.483333 0
0.35 -0.483333 0
0.35 -0.5 0
0.366667 -0.5 0
0.35 -0.483333 0
0.366667 -0.483333 0
0.366667 -0.5 0
0.383333 -0.5 0
0.366667 -0.483333 0
0.383333 -0.483333 0
0.383333 -0.5 0
0.4 -0.5 0
0.383333 -0.483333 0
0.4 -0.483333 0
0.4 -0.5 0
0.416667 -0.5 0
0.4 -0.483333 0
0.416667 -0.483333 0
0.416667 -0.5 0
0.433333 -0.5 0
0.416667 -0.483333 0
0.433333 -0.483333 0
0.433333 -0.5 0
0.45 -0.5 0
0.433333 -0.483333 0
0.45 -0.483333 0
0.45 -0.5 0
0.466667 -0.5 0
0.45 -0.483333 0
0.466667 -0.483333 0
0.466667 -0.5 0
0.483333 -0.5 0
0.466667 -0.483333 0
0.483333 -0.483333 0
0.483333 -0.5 0
0.5 -0.5 0
0.483333 -0.483333 0
0.5 -0.483333 0
0.5 -0.5 0
0.516667 -0.5 0
0.5 -0.483333 0
0.516667 -0.483333 0
0.516667 -0.5 0
0.533333 -0.5 0
0.516667 -0.483333 0
0.533333 -0.483333 0
0.533333 -0.5 0
0.55 -0.5 0
0.533333 -0.483333 0
0.55 -0.483333 0
0.55 -0.5 0
0.566667 -0.5 0
0.55 -0.483333 0
0.566667 -0.483333 0
0.566667 -0.5 0
0.583333 -0.5 0
0.566667 -0.483333 0
0.583333 -0.483333 0
0.583333 -0.5 0
0.6 -0.5 0
0.583333 -0.483333 0
0.6 -0.483333 0
0.6 -0.5 0
0.616667 -0.5 0
0.6 -0.483333 0
0.616667 -0.483333 0
0.616667 -0.5 0
0.633333 -0.5 0
0.616667 -0.483333 0
0.633333 -0.483333 0
0.633333 -0.5 0
0.65 -0.5 0
0.633333 -0.483333 0
0.65 -0.483333 0
0.65 -0.5 0
0.666667 -0.5 0
0.65 -0.483333 0
0.666667 -0.483333 0
0.666667 -0.5 0
0.683333 -0.5 0
0.666667 -0.483333 0
0.683333 -0.483333 0
0.683333 -0.5 0
0.7 -0.5 0
0.683333 -0.483333 0
0.7 -0.483333 0
0.7 -0.5 0
0.716667 -0.5 0
0.7 -0.483333 0
0.716667 -0.483333 0
0.716667 -0.5 0
0.733333 -0.5 0
0.716667 -0.483333 0
0.733333 -0.483333 0
0.733333 -0.5 0
0.75 -0.5 0
0.733333 -0.483333 0
0.75 -0.483333 0
0.75 -0.5 0
0.766667 -0.5 0
0.75 -0.483333 0
0.766667 -0.483333 0
0.766667 -0.5 0
0.783333 -0.5 0
0.766667 -0.483333 0
0.783333 -0.483333 0
0.783333 -0.5 0
0.8 -0.5 0
0.783333 -0.483333 0
0.8 -0.483333 0
0.8 -0.5 0
0.816667 -0.5 0
0.8 -0.483333 0
0.816667 -0.483333 0
0.816667 -0.5 0
0.833333 -0.5 0
0.816667 -0.483333 0
0.833333 -0.483333 0
0.833333 -0.5 0
0.85 -0.5 0
0.833333 -0.483333 0
0.85 -0.483333 0
0.85 -0.5 0
0.866667 -0.5 0
0.85 -0.483333 0
0.866667 -0.483333 0
0.866667 -0.5 0
0.883333 -0.5 0
0.866667 -0.483333 0
0.883333 -0.483333 0
0.883333 -0.5 0
0.9 -0.5 0
0.883333 -0.483333 0
0.9 -0.483333 0
0.9 -0.5 0
0.916667 -0.5 0
0.9 -0.483333 0
0.916667 -0.483333 0
0.916667 -0.5 0
0.933333 -0.5 0
0.916667 -0.483333 0
0.933333 -0.483333 0
0.933333 -0.5 0
0.95 -0.5 0
0.933333 -0.483333 0
0.95 -0.483333 0
0.95 -0.5 0
0.966667 -0.5 0
0.95 -0.483333 0
0.966667 -0.483333 0
0.966667 -0.5 0
0.983333 -0.5 0
0.966667 -0.483333 0
0.983333 -0.483333 0
0.983333 -0.5 0
1 -0.5 0
0.983333 -0.483333 0
1 -0.483333 0
1 -0.5 0
1.01667 -0.5 0
1 -0.483333 0
1.01667 -0.483333 0
1.01667 -0.5 0
1.03333 -0.5 0
1.01667 -0.483333 0
1.03333 -0.483333 0
1.03333 -0.5 0
1.05 -0.5 0
1.03333 -0.483333 0
1.05 -0.483333 0
1.05 -0.5 0
1.06667 -0.5 0
1.05 -0.483333 0
1.06667 -0.483333 0
1.06667 -0.5 0
1.08333 -0.5 0
1.06667 -0.483333 0
1.08333 -0.483333 0
1.08333 -0.5 0
1.1 -0.5 0
1.08333 -0.483333 0
1.1 -0.483333 0
1.1 -0.5 0
1.11667 -0.5 0
1.1 -0.483333 0
1.11667 -0.483333 0
1.11667 -0.5 0
1.13333 -0.5 0
1.11667 -0.483333 0
1.13333 -0.483333 0
1.13333 -0.5 0
1.15 -0.5 0
1.13333 -0.483333 0
1.15 -0.483333 0
1.15 -0.5 0
1.16667 -0.5 0
1.15 -0.483333 0
1.16667 -0.483333 0
1.16667 -0.5 0
1.18333 -0.5 0
1.16667 -0.483333 0
1.18333 -0.483333 0
1.18333 -0.5 0
1.2 -0.5 0
1.18333 -0.483333 0
1.2 -0.483333 0
1.2 -0.5 0
1.21667 -0.5 0
1.2 -0.483333 0
1.21667 -0.483333 0
1.21667 -0.5 0
1.23333 -0.5 0
1.21667 -0.483333 0
1.23333 -0.483333 0
1.23333 -0.5 0
1.25 -0.5 0
1.23333 -0.483333 0
1.25 -0.483333 0
1.25 -0.5 0
1.26667 -0.5 0
1.25 -0.483333 0
1.26667 -0.483333 0
1.26667 -0.5 0
1.28333 -0.5 0
1.26667 -0.483333 0
1.28333 -0.483333 0
1.28333 -0.5 0
1.3 -0.5 0
1.28333 -0.483333 0
1.3 -0.483333 0
1.3 -0.5 0
1.31667 -0.5 0
1.3 -0.483333 0
1.31667 -0.483333 0
1.31667 -0.5 0
1.33333 -0.5 0
1.31667 -0.483333 0
1.33333 -0.483333 0
1.33333 -0.5 0
1.35 -0.5 0
1.33333 -0.483333 0
1.35 -0.483333 0
1.35 -0.5 0
1.36667 -0.5 0
1.35 -0.483333 0
1.36667 -0.483333 0
1.36667 -0.5 0
1.38333 -0.5 0
1.36667 -0.483333 0
1.38333 -0.483333 0
1.38333 -0.5 0
1.4 -0.5 0
1.38333 -0.483333 0
1.4 -0.483333 0
1.4 -0.5 0
1.41667 -0.5 0
1.4 -0.483333 0
1.41667 -0.483333 0
1.41667 -0.5 0
1.43333 -0.5 0
1.41667 -0.483333 0
1.43333 -0.483333 0
1.43333 -0.5 0
1.45 -0.5 0
1.43333 -0.483333 0
1.45 -0.483333 0
1.45 -0.5 0
1.46667 -0.5 0
1.45 -0.483333 0
1.46667 -0.483333 0
1.46667 -0.5 0
1.48333 -0.5 0
1.46667 -0.483333 0
1.48333 -0.483333 0
1.48333 -0.5 0
1.5 -0.5 0
1.48333 -0.483333 0
1.5 -0.483333 0
1.5 -0.5 0
1.51667 -0.5 0
1.5 -0.483333 0
1.51667 -0.483333 0
1.51667 -0.5 0
1.53333 -0.5 0
1.51667 -0.483333 0
1.53333 -0.483333 0
1.53333 -0.5 0
1.55 -0.5 0
1.53333 -0.483333 0
1.55 -0.483333 0
1.55 -0.5 0
1.56667 -0.5 0
1.55 -0.483333 0
1.56667 -0.483333 0
1.56667 -0.5 0
1.58333 -0.5 0
1.56667 -0.483333 0
1.58333 -0.483333 0
1.58333 -0.5 0
1.6 -0.5 0
1.58333 -0.483333 0
1.6 -0.483333 0
1.6 -0.5 0
1.61667 -0.5 0
1.6 -0.483333 0
1.61667 -0.483333 0
1.61667 -0.5 0
1.63333 -0.5 0
1.61667 -0.483333 0
1.63333 -0.483333 0
1.63333 -0.5 0
1.65 -0.5 0
1.63333 -0.483333 0
1.65 -0.483333 0
1.65 -0.5 0
1.66667 -0.5 0
1.65 -0.483333 0
1.66667 -0.483333 0
1.66667 -0.5 0
1.68333 -0.5 0
1.66667 -0.483333 0
1.68333 -0.483333 0
1.68333 -0.5 0
1.7 -0.5 0
1.68333 -0.483333 0
1.7 -0.483333 0
1.7 -0.5 0
1.71667 -0.5 0
1.7 -0.483333 0
1.71667 -0.483333 0
1.71667 -0.5 0
1.73333 -0.5 0
1.71667 -0.483333 0
1.73333 -0.483333 0
1.73333 -0.5 0
1.75 -0.5 0
1.73333 -0.483333 0
1.75 -0.483333 0
1.75 -0.5 0
1.76667 -0.5 0
1.75 -0.483333 0
1.76667 -0.483333 0
1.76667 -0.5 0
1.78333 -0.5 0
1.76667 -0.483333 0
1.78333 -0.483333 0
1.78333 -0.5 0
1.8 -0.5 0
1.78333 -0.483333 0
1.8 -0.483333 0
1.8 -0.5 0
1.81667 -0.5 0
1.8 -0.483333 0
1.81667 -0.483333 0
1.81667 -0.5 0
1.83333 -0.5 0
1.81667 -0.483333 0
1.83333 -0.483333 0
1.83333 -0.5 0
1.85 -0.5 0
1.83333 -0.483333 0
1.85 -0.483333 0
1.85 -0.5 0
1.86667 -0.5 0
1.85 -0.483333 0
1.86667 -0.483333 0
1.86667 -0.5 0
1.88333 -0.5 0
1.86667 -0.483333 0
1.88333 -0.483333 0
1.88333 -0.5 0
1.9 -0.5 0
1.88333 -0.483333 0
1.9 -0.483333 0
1.9 -0.5 0
1.91667 -0.5 0
1.9 -0.483333 0
1.91667 -0.483333 0
1.91667 -0.5 0
1.93333 -0.5 0
1.91667 -0.483333 0
1.93333 -0.483333 0
1.93333 -0.5 0
1.95 -0.5 0
1.93333 -0.483333 0
1.95 -0.483333 0
1.95 -0.5 0
1.96667 -0.5 0
1.95 -0.483333 0
1.96667 -0.483333 0
1.96667 -0.5 0
1.98333 -0.5 0
1.96667 -0.483333 0
1.98333 -0.483333 0
1.98333 -0.5 0
2 -0.5 0
1.98333 -0.483333 0
2 -0.483333 0
0 -0.483333 0
0.0166667 -0.483333 0
0 -0.466667 0
0.0166667 -0.466667 0
0.0166667 -0.483333 0
0.0333333 -0.483333 0
0.0166667 -0.466667 0
0.0333333 -0.466667 0
0.0333333 -0.483333 0
0.05 -0.483333 0
0.0333333 -0.466667 0
0.05 -0.466667 0
0.05 -0.483333 0
0.0666667 -0.483333 0
0.05 -0.466667 0
0.0666667 -0.466667 0
0.0666667 -0.483333 0
0.0833333 -0.483333 0
0.0666667 -0.466667 0
0.0833333 -0.466667 0
0.0833333 -0.483333 0
0.1 -0.483333 0
0.0833333 -0.466667 0
0.1 -0.466667 0
0.1 -0.483333 0
0.116667 -0.483333 0
0.1 -0.466667 0
0.116667 -0.466667 0
0.116667 -0.483333 0
0.133333 -0.483333 0
0.116667 -0.466667 0
0.133333 -0.466667 0
0.133333 -0.483333 0
0.15 -0.483333 0
0.133333 -0.466667 0
0.15 -0.466667 0
0.15 -0.483333 0
0.166667 -0.483333 0
0.15 -0.466667 0
0.166667 -0.466667 0
0.166667 -0.483333 0
0.183333 -0.483333 0
0.166667 -0.466667 0
0.183333 -0.466667 0
0.183333 -0.483333 0
0.2 -0.483333 0
0.183333 -0.466667 0
0.2 -0.466667 0
0.2 -0.483333 0
0.216667 -0.483333 0
0.2 -0.466667 0
0.216667 -0.466667 0
0.216667 -0.483333 0
0.233333 -0.483333 0
0.216667 -0.466667 0
0.233333 -0.466667 0
0.233333 -0.483333 0
0.25 -0.483333 0
0.233333 -0.466667 0
0.25 -0.466667 0
0.25 -0.483333 0
0.266667 -0.483333 0
0.25 -0.466667 0
0.266667 -0.466667 0
0.266667 -0.483333 0
0.283333 -0.483333 0
0.266667 -0.466667 0
0.283333 -0.466667 0
0.283333 -0.483333 0
0.3 -0.483333 0
0.283333 -0.466667 0
0.3 -0.466667 0
0.3 -0.483333 0
0.316667 -0.483333 0
0.3 -0.466667 0
0.316667 -0.466667 0
0.316667 -0.483333 0
0.333333 -0.483333 0
0.316667 -0.466667 0
0.333333 -0.466667 0
0.333333 -0.483333 0
0.35 -0.483333 0
0.333333 -0.466667 0
0.35 -0.466667 0
0.35 -0.483333 0
0.366667 -0.483333 0
0.35 -0.466667 0
0.366667 -0.466667 0
0.366667 -0.483333 0
0.383333 -0.483333 0
0.366667 -0.466667 0
0.383333 -0.466667 0
0.383333 -0.483333 0
0.4 -0.483333 0
[...]
POINT_DATA 28800
SCALARS x1_displacement double 1
LOOKUP_TABLE default
0 0.00156465 0 0.00236343 0.00156465 0.00363867 0.00236343 0.00409881 0.00363867 0.0057566 0.00409881 0.00585555 0.0057566 0.00778239 0.00585555 0.0076423 0.00778239 0.00974767 0.0076423 0.00944753 0.00974767 0.0116849 0.00944753 0.0112648 0.0116849 0.0136161 0.0112648 0.0130922 0.0136161 0.0155508 0.0130922 0.0149276 0.0155508 0.0174887 0.0149276 0.0167676 0.0174887 0.0194245 0.0167676 0.0186073 0.0194245 0.0213509 0.0186073 0.0204422 0.0213509 0.0232627 0.0204422 0.022269 0.0232627 0.0251572 0.022269 0.0240864 0.0251572 0.0270338 0.0240864 0.0258945 0.0270338 0.0288926 0.0258945 0.0276934 0.0288926 0.0307318 0.0276934 0.0294832 0.0307318 0.0325468 0.0294832 0.031264 0.0325468 0.0343454 0.031264 0.0330452 0.0343454 0.0361376 0.0330452 0.0348458 0.0361376 0.0379209 0.0348458 0.0366807 0.0379209 0.0398426 0.0366807 0.038586 0.0398426 0.0418893 0.038586 0.0404779 0.0418893 0.0437882 0.0404779 0.0423166 0.0437882 0.0455716 0.0423166 0.0441062 0.0455716 0.0472905 0.0441062 0.0458794 0.0472905 0.0490309 0.0458794 0.0478235 0.0490309 0.0514515 0.0478235 0.049942 0.0514515 0.0536399 0.049942 0.0519214 0.0536399 0.055658 0.0519214 0.0538028 0.055658 0.0575786 0.0538028 0.0556053 0.0575786 0.0594717 0.0556053 0.057348 0.0594717 0.061419 0.057348 0.0590657 0.061419 0.0634571 0.0590657 0.0608551 0.0634571 0.0653851 0.0608551 0.0630621 0.0653851 0.0673613 0.0630621 0.0651329 0.0673613 0.0693665 0.0651329 0.0670932 0.0693665 0.0713664 0.0670932 0.0689933 0.0713664 0.0733728 0.0689933 0.0708776 0.0733728 0.0753761 0.0708776 0.0727886 0.0753761 0.0773369 0.0727886 0.0747153 0.0773369 0.0792561 0.0747153 0.0766292 0.0792561 0.0811731 0.0766292 0.0785673 0.0811731 0.0831271 0.0785673 0.0804994 0.0831271 0.0851067 0.0804994 0.0824218 0.0851067 0.0870882 0.0824218 0.0843448 0.0870882 0.089048 0.0843448 0.0862575 0.089048 0.0909729 0.0862575 0.0881581 0.0909729 0.0928801 0.0881581 0.0900499 0.0928801 0.0947924 0.0900499 0.0919497 0.0947924 0.0967221 0.0919497 0.0938548 0.0967221 0.0986651 0.0938548 0.0957633 0.0986651 0.100611 0.0957633 0.0976733 0.100611 0.102551 0.0976733 0.0995827 0.102551 0.104482 0.0995827 0.10149 0.104482 0.106413 0.10149 0.103402 0.106413 0.108355 0.103402 0.105325 0.108355 0.110317 0.105325 0.107265 0.110317 0.112304 0.107265 0.109221 0.112304 0.114314 0.109221 0.111194 0.114314 0.11635 0.111194 0.113187 0.11635 0.118408 0.113187 0.115198 0.118408 0.120489 0.115198 0.117227 0.120489 0.122589 0.117227 0.119273 0.122589 0.124706 0.119273 0.121333 0.124706 0.126835 0.121333 0.123403 0.126835 0.128973 0.123403 0.125482 0.128973 0.131114 0.125482 0.127565 0.131114 0.133256 0.127565 0.129651 0.133256 0.135392 0.129651 0.131738 0.135392 0.13752 0.131738 0.133823 0.13752 0.139644 0.133823 0.135906 0.139644 0.141776 0.135906 0.137991 0.141776 0.143932 0.137991 0.140087 0.143932 0.146117 0.140087 0.142202 0.146117 0.148312 0.142202 0.144326 0.148312 0.150487 0.144326 0.146439 0.150487 0.152635 0.146439 0.148521 0.152635 0.154771 0.148521 0.150588 0.154771 0.156913 0.150588 0.152642 0.156913 0.15904 0.152642 0.154677 0.15904 0.161111 0.154677 0.156671 0.161111 0.163096 0.156671 0.158621 0.163096 0.165025 0.158621 0.160506 0.165025 0.166916 0.160506 0.162366 0.166916 0.16877 0.162366 0.164157 0.16877 0.17056 0.164157 0.165891 0.17056 0.172295 0.165891 0.167587 0.172295 0.173984 0.167587 0.169253 0.173984 0.175633 0.169253 0.170888 0.175633 0.177234 0.170888 0.172529 0.177234 0.178796 0.172529 0.174167 0.178796 0.1803 0.174167 0.17577 0.1803 0.181691 0.17577 0.177311 0.181691 0.182915 0.177311 0.178763 0.182915 0.184517 0.178763 0.180273 0.184517 0.186134 0.180273 0.181869 0.186134 0.1877 0.181869 0.183452 0.1877 0.189167 0.183452 0.185 0.189167 0.190513 0.185 0.186515 0.190513 0.191976 0.186515 0.188031 0.191976 0.193539 0.188031 0.189601 0.193539 0.195078 0.189601 0.191193 0.195078 0.196615 0.191193 0.192804 0.196615 0.198142 0.192804 0.194424 0.198142 0.199649 0.194424 0.196045 0.199649 0.20115 0.196045 0.19766 0.20115 0.202666 0.19766 0.199269 0.202666 0.20423 0.199269 0.200885 0.20423 0.205865 0.200885 0.202516 0.205865 0.207574 0.202516 0.204166 0.207574 0.209342 0.204166 0.205832 0.209342 0.211148 0.205832 0.207513 0.211148 0.212974 0.207513 0.209212 0.212974 0.214812 0.209212 0.210926 0.214812 0.216651 0.210926 0.212647 0.216651 0.218465 0.212647 0.214375 0.218465 0.220235 0.214375 0.216098 0.220235 0.221959 0.216098 0.217803 0.221959 0.223648 0.217803 0.219488 0.223648 0.225318 0.219488 0.221156 0 0.00236343 0 0.00236975 0.00236343 0.00409881 0.00236975 0.00421698 0.00409881 0.00585555 0.00421698 0.00584146 0.00585555 0.0076423 0.00584146 0.00746814 0.0076423 0.00944753 0.00746814 0.00913202 0.00944753 0.0112648 0.00913202 0.0108307 0.0112648 0.0130922 0.0108307 0.0125553 0.0130922 0.0149276 0.0125553 0.0142972 0.0149276 0.0167676 0.0142972 0.0160481 0.0167676 0.0186073 0.0160481 0.0178011 0.0186073 0.0204422 0.0178011 0.0195514 0.0204422 0.022269 0.0195514 0.0212972 0.022269 0.0240864 0.0212972 0.0230389 0.0240864 0.0258945 0.0230389 0.024779 0.0258945 0.0276934 0.024779 0.0265197 0.0276934 0.0294832 0.0265197 0.0282629 0.0294832 0.031264 0.0282629 0.0300107 0.031264 0.0330452 0.0300107 0.0317667 0.0330452 0.0348458 0.0317667 0.0335356 0.0348458 0.0366807 0.0335356 0.0353189 0.0366807 0.038586 0.0353189 0.037121 0.038586 0.0404779 0.037121 0.0389316 0.0404779 0.0423166 0.0389316 0.0407373 0.0423166 0.0441062 0.0407373 0.0425426 0.0441062 0.0458794 0.0425426 0.0443822 0.0458794 0.0478235 0.0443822 0.0462942 0.0478235 0.049942 0.0462942 0.0481948 0.049942 0.0519214 0.0481948 0.0500578 0.0519214 0.0538028 0.0500578 0.0518873 0.0538028 0.0556053 0.0518873 0.0536819 0.0556053 0.057348 0.0536819 0.0554521 0.057348 0.0590657 0.0554521 0.0572437 0.0590657 0.0608551 0.0572437 0.0591952 0.0608551 0.0630621 0.0591952 0.0611995 0.0630621 0.0651329 0.0611995 0.063098 0.0651329 0.0670932 0.063098 0.0649188 0.0670932 0.0689933 0.0649188 0.0666759 0.0689933 0.0708776 0.0666759 0.068392 0.0708776 0.0727886 0.068392 0.0701087 0.0727886 0.0747153 0.0701087 0.0719778 0.0747153 0.0766292 0.0719778 0.0740481 0.0766292 0.0785673 0.0740481 0.0760109 0.0785673 0.0804994 0.0760109 0.0778978 0.0804994 0.0824218 0.0778978 0.0797457 0.0824218 0.0843448 0.0797457 0.0815988 0.0843448 0.0862575 0.0815988 0.0834862 0.0862575 0.0881581 0.0834862 0.085343 0.0881581 0.0900499 0.085343 0.0872223 0.0900499 0.0919497 0.0872223 0.0891076 0.0919497 0.0938548 0.0891076 0.0909833 0.0938548 0.0957633 0.0909833 0.0928552 0.0957633 0.0976733 0.0928552 0.0947328 0.0976733 0.0995827 0.0947328 0.0966091 0.0995827 0.10149 0.0966091 0.0984849 0.10149 0.103402 0.0984849 0.100365 0.103402 0.105325 0.100365 0.102262 0.105325 0.107265 0.102262 0.104172 0.107265 0.109221 0.104172 0.106093 0.109221 0.111194 0.106093 0.108028 0.111194 0.113187 0.108028 0.109977 0.113187 0.115198 0.109977 0.111943 0.115198 0.117227 0.111943 0.113926 0.117227 0.119273 0.113926 0.115923 0.119273 0.121333 0.115923 0.117933 0.121333 0.123403 0.117933 0.119953 0.123403 0.125482 0.119953 0.121979 0.125482 0.127565 0.121979 0.12401 0.127565 0.129651 0.12401 0.126045 0.129651 0.131738 0.126045 0.128084 0.131738 0.133823 0.128084 0.130124 0.133823 0.135906 0.130124 0.132159 0.135906 0.137991 0.132159 0.134182 0.137991 0.140087 0.134182 0.136217 0.140087 0.142202 0.136217 0.138275 0.142202 0.144326 0.138275 0.140353 0.144326 0.146439 0.140353 0.142425 0.146439 0.148521 0.142425 0.144468 0.148521 0.150588 0.144468 0.146454 0.150588 0.152642 0.146454 0.148462 0.152642 0.154677 0.148462 0.150399 0.154677 0.156671 0.150399 0.152297 0.156671 0.158621 0.152297 0.154215 0.158621 0.160506 0.154215 0.156212 0.160506 0.162366 0.156212 0.157962 0.162366 0.164157 0.157962 0.159638 0.164157 0.165891 0.159638 0.161311 0.165891 0.167587 0.161311 0.16298 0.167587 0.169253 0.16298 0.164631 0.169253 0.170888 0.164631 0.166257 0.170888 0.172529 0.166257 0.167888 0.172529 0.174167 0.167888 0.169526 0.174167 0.17577 0.169526 0.171152 0.17577 0.177311 0.171152 0.172755 0.177311 0.178763 0.172755 0.174333 0.178763 0.180273 0.174333 0.175899 0.180273 0.181869 0.175899 0.177492 0.181869 0.183452 0.177492 0.179101 0.183452 0.185 0.179101 0.180713 0.185 0.186515 0.180713 0.18233 0.186515 0.188031 0.18233 0.183964 0.188031 0.189601 0.183964 0.185617 0.189601 0.191193 0.185617 0.187291 0.191193 0.192804 0.187291 0.188988 0.192804 0.194424 0.188988 0.19071 0.194424 0.196045 0.19071 0.192446 0.196045 0.19766 0.192446 0.194178 0.19766 0.199269 0.194178 0.195865 0.199269 0.200885 0.195865 0.197514 0.200885 0.202516 0.197514 0.199145 0.202516 0.204166 0.199145 0.200729 0.204166 0.205832 0.200729 0.202268 0.205832 0.207513 0.202268 0.203821 0.207513 0.209212 0.203821 0.205416 0.209212 0.210926 0.205416 0.207041 0.210926 0.212647 0.207041 0.208679 0.212647 0.214375 0.208679 0.210323 0.214375 0.216098 0.210323 0.212006 0.216098 0.217803 0.212006 0.213691 0.217803 0.219488 0.213691 0.21536 0.219488 0.221156 0.21536 0.217012 0 0.00236975 0 0.00228046 0.00236975 0.00421698 0.00228046 0.0040202 0.00421698 0.00584146 0.0040202 0.00560832 0.00584146 0.00746814 0.00560832 0.00716687 0.00746814 0.00913202 0.00716687 0.00874763 0.00913202 0.0108307 0.00874763 0.0103599 0.0108307 0.0125553 0.0103599 0.0119999 0.0125553 0.0142972 0.0119999 0.0136588 0.0142972 0.0160481 0.0136588 0.0153264 0.0160481 0.0178011 0.0153264 0.0169953 0.0178011 0.0195514 0.0169953 0.0186625 0.0195514 0.0212972 0.0186625 0.0203277 0.0212972 0.0230389 0.0203277 0.0219941 0.0230389 0.024779 0.0219941 0.0236665 0.024779 0.0265197 0.0236665 0.0253485 0.0265197 0.0282629 0.0253485 0.0270407 0.0282629 0.0300107 0.0270407 0.0287423 0.0300107 0.0317667 0.0287423 0.030452 0.0317667 0.0335356 0.030452 0.0321688 0.0335356 0.0353189 0.0321688 0.0338927 0.0353189 0.037121 0.0338927 0.0356259 0.037121 0.0389316 0.0356259 0.037373 0.0389316 0.0407373 0.037373 0.0391339 0.0407373 0.0425426 0.0391339 0.0409058 0.0425426 0.0443822 0.0409058 0.042691 0.0443822 0.0462942 0.042691 0.0444951 0.0462942 0.0481948 0.0444951 0.0463049 0.0481948 0.0500578 0.0463049 0.0481069 0.0500578 0.0518873 0.0481069 0.0498988 0.0518873 0.0536819 0.0498988 0.0516842 0.0536819 0.0554521 0.0516842 0.0534788 0.0554521 0.0572437 0.0534788 0.055314 0.0572437 0.0591952 0.055314 0.0571828 0.0591952 0.0611995 0.0571828 0.0590317 0.0611995 0.063098 0.0590317 0.0608511 0.063098 0.0649188 0.0608511 0.0626411 0.0649188 0.0666759 0.0626411 0.0644021 0.0666759 0.068392 0.0644021 0.0661511 0.068392 0.0701087 0.0661511 0.0679561 0.0701087 0.0719778 0.0679561 0.0698886 0.0719778 0.0740481 0.0698886 0.0717939 0.0740481 0.0760109 0.0717939 0.073622 0.0760109 0.0778978 0.073622 0.0753899 0.0778978 0.0797457 0.0753899 0.0771104 0.0797457 0.0815988 0.0771104 0.0788074 0.0815988 0.0834862 0.0788074 0.080534 0.0834862 0.085343 0.080534 0.0825337 0.085343 0.0872223 0.0825337 0.084451 0.0872223 0.0891076 0.084451 0.0863107 0.0891076 0.0909833 0.0863107 0.0881341 0.0909833 0.0928552 0.0881341 0.0899412 0.0928552 0.0947328 0.0899412 0.0917609 0.0947328 0.0966091 0.0917609 0.0936121 0.0966091 0.0984849 0.0936121 0.0954457 0.0984849 0.100365 0.0954457 0.0973079 0.100365 0.102262 0.0973079 0.0991815 0.102262 0.104172 0.0991815 0.101057 0.104172 0.106093 0.101057 0.102936 0.106093 0.108028 0.102936 0.104826 0.108028 0.109977 0.104826 0.106729 0.109977 0.111943 0.106729 0.10865 0.111943 0.113926 0.10865 0.110589 0.113926 0.115923 0.110589 0.112544 0.115923 0.117933 0.112544 0.114511 0.117933 0.119953 0.114511 0.116485 0.119953 0.121979 0.116485 0.118464 0.121979 0.12401 0.118464 0.120445 0.12401 0.126045 0.120445 0.122427 0.126045 0.128084 0.122427 0.124413 0.128084 0.130124 0.124413 0.126406 0.130124 0.132159 0.126406 0.128407 0.132159 0.134182 0.128407 0.130396 0.134182 0.136217 0.130396 0.132356 0.136217 0.138275 0.132356 0.134368 0.138275 0.140353 0.134368 0.136355 0.140353 0.142425 0.136355 0.138348 0.142425 0.144468 0.138348 0.140415 0.144468 0.146454 0.140415 0.142634 0.146454 0.148462 0.142634 0.144427 0.148462 0.150399 0.144427 0.146134 0.150399 0.152297 0.146134 0.147851 0.152297 0.154215 0.147851 0.149605 0.154215 0.156212 0.149605 0.151397 0.156212 0.157962 0.151397 0.153165 0.157962 0.159638 0.153165 0.154867 0.159638 0.161311 0.154867 0.15655 0.161311 0.16298 0.15655 0.158227 0.16298 0.164631 0.158227 0.159893 0.164631 0.166257 0.159893 0.161545 0.166257 0.167888 0.161545 0.163185 0.167888 0.169526 0.163185 0.164827 0.169526 0.171152 0.164827 0.166468 0.171152 0.172755 0.166468 0.168107 0.172755 0.174333 0.168107 0.169743 0.174333 0.175899 0.169743 0.171388 0.175899 0.177492 0.171388 0.173046 0.177492 0.179101 0.173046 0.174716 0.179101 0.180713 0.174716 0.176404 0.180713 0.18233 0.176404 0.178113 0.18233 0.183964 0.178113 0.179835 0.183964 0.185617 0.179835 0.181567 0.185617 0.187291 0.181567 0.183321 0.187291 0.188988 0.183321 0.18513 0.188988 0.19071 0.18513 0.186983 0.19071 0.192446 0.186983 0.18885 0.192446 0.194178 0.18885 0.190729 0.194178 0.195865 0.190729 0.192578 0.195865 0.197514 0.192578 0.194274 0.197514 0.199145 0.194274 0.195879 0.199145 0.200729 0.195879 0.197328 0.200729 0.202268 0.197328 0.198685 0.202268 0.203821 0.198685 0.200085 0.203821 0.205416 0.200085 0.201529 0.205416 0.207041 0.201529 0.20307 0.207041 0.208679 0.20307 0.204659 0.208679 0.210323 0.204659 0.206271 0.210323 0.212006 0.206271 0.207917 0.212006 0.213691 0.207917 0.209576 0.213691 0.21536 0.209576 0.211224 0.21536 0.217012 0.211224 0.212856 0 0.00228046 0 0.00195913 0.00228046 0.0040202 0.00195913 0.00359536 0.0040202 0.00560832 0.00359536 0.00518186 0.00560832 0.00716687 0.00518186 0.006736 0.00716687 0.00874763 0.006736 0.00828896 0.00874763 0.0103599 0.00828896 0.00985455 0.0103599 0.0119999 0.00985455 0.0114338 0.0119999 0.0136588 0.0114338 0.0130209 0.0136588 0.0153264 0.0130209 0.0146024 0.0153264 0.0169953 0.0146024 0.0161785 0.0169953 0.0186625 0.0161785 0.0177568 0.0186625 0.0203277 0.0177568 0.0193399 0.0203277 0.0219941 0.0193399 0.0209319 0.0219941 0.0236665 0.0209319 0.0225386 0.0236665 0.0253485 0.0225386 0.0241622 0.0253485 0.0270407 0.0241622 0.0258003 0.0270407 0.0287423 0.0258003 0.0274486 0.0287423 0.030452 0.0274486 0.0291037 0.030452 0.0321688 0.0291037 0.0307648 0.0321688 0.0338927 0.0307648 0.0324331 0.0338927 0.0356259 0.0324331 0.0341119 0.0356259 0.037373 0.0341119 0.0358048 0.037373 0.0391339 0.0358048 0.0375124 0.0391339 0.0409058 0.0375124 0.0392302 0.0409058 0.042691 0.0392302 0.0409521 0.042691 0.0444951 0.0409521 0.0426782 0.0444951 0.0463049 0.0426782 0.0444131 0.0463049 0.0481069 0.0444131 0.0461561 0.0481069 0.0498988 0.0461561 0.0479049 0.0498988 0.0516842 0.0479049 0.0496592 0.0516842 0.0534788 0.0496592 0.0514205 0.0534788 0.055314 0.0514205 0.0531932 0.055314 0.0571828 0.0531932 0.0549769 0.0571828 0.0590317 0.0549769 0.0567602 0.0590317 0.0608511 0.0567602 0.0585356 0.0608511 0.0626411 0.0585356 0.0603023 0.0626411 0.0644021 0.0603023 0.0620656 0.0644021 0.0661511 0.0620656 0.0638445 0.0661511 0.0679561 0.0638445 0.0656625 0.0679561 0.0698886 0.0656625 0.0674878 0.0698886 0.0717939 0.0674878 0.0692914 0.0717939 0.073622 0.0692914 0.0710713 0.073622 0.0753899 0.0710713 0.0728258 0.0753899 0.0771104 0.0728258 0.0745585 0.0771104 0.0788074 0.0745585 0.0762926 0.0788074 0.080534 0.0762926 0.0781225 0.080534 0.0825337 0.0781225 0.0800108 0.0825337 0.084451 0.0800108 0.0818294 0.084451 0.0863107 0.0818294 0.0835995 0.0863107 0.0881341 0.0835995 0.0853327 0.0881341 0.0899412 0.0853327 0.0870404 0.0899412 0.0917609 0.0870404 0.0887304 0.0917609 0.0936121 0.0887304 0.0904482 0.0936121 0.0954457 0.0904482 0.0923957 0.0954457 0.0973079 0.0923957 0.0942723 0.0973079 0.0991815 0.0942723 0.096111 0.0991815 0.101057 0.096111 0.0979348 0.101057 0.102936 0.0979348 0.0997587 0.102936 0.104826 0.0997587 0.101593 0.104826 0.106729 0.101593 0.103447 0.106729 0.10865 0.103447 0.105323 0.10865 0.110589 0.105323 0.107221 0.110589 0.112544 0.107221 0.109139 0.112544 0.114511 0.109139 0.11107 0.114511 0.116485 0.11107 0.113006 0.116485 0.118464 0.113006 0.114942 0.118464 0.120445 0.114942 0.116871 0.120445 0.122427 0.116871 0.118795 0.122427 0.124413 0.118795 0.120714 0.124413 0.126406 0.120714 0.12264 0.126406 0.128407 0.12264 0.124593 0.128407 0.130396 0.124593 0.126612 0.130396 0.132356 0.126612 0.12875 0.132356 0.134368 0.12875 0.130538 0.134368 0.136355 0.130538 0.132271 0.136355 0.138348 0.132271 0.134036 0.138348 0.140415 0.134036 0.135888 0.140415 0.142634 0.135888 0.137837 0.142634 0.144427 0.137837 0.139732 0.144427 0.146134 0.139732 0.141486 0.146134 0.147851 0.141486 0.143214 0.147851 0.149605 0.143214 0.144948 0.149605 0.151397 0.144948 0.146683 0.151397 0.153165 0.146683 0.148406 0.153165 0.154867 0.148406 0.150106 0.154867 0.15655 0.150106 0.151788 0.15655 0.158227 0.151788 0.15346 0.158227 0.159893 0.15346 0.155125 0.159893 0.161545 0.155125 0.156784 0.161545 0.163185 0.156784 0.158444 0.163185 0.164827 0.158444 0.160106 0.164827 0.166468 0.160106 0.161773 0.166468 0.168107 0.161773 0.163449 0.168107 0.169743 0.163449 0.165137 0.169743 0.171388 0.165137 0.166836 0.171388 0.173046 0.166836 0.168549 0.173046 0.174716 0.168549 0.170289 0.174716 0.176404 0.170289 0.172078 0.176404 0.178113 0.172078 0.173882 0.178113 0.179835 0.173882 0.175679 0.179835 0.181567 0.175679 0.177456 0.181567 0.183321 0.177456 0.179225 0.183321 0.18513 0.179225 0.181065 0.18513 0.186983 0.181065 0.183181 0.186983 0.18885 0.183181 0.185511 0.18885 0.190729 0.185511 0.188045 0.190729 0.192578 0.188045 0.190093 0.192578 0.194274 0.190093 0.191692 0.194274 0.195879 0.191692 0.193109 0.195879 0.197328 0.193109 0.194364 0.197328 0.198685 0.194364 0.195386 0.198685 0.200085 0.195386 0.19642 0.200085 0.201529 0.19642 0.197526 0.201529 0.20307 0.197526 0.198932 0.20307 0.204659 0.198932 0.200476 0.204659 0.206271 0.200476 0.202074 0.206271 0.207917 0.202074 0.203717 0.207917 0.209576 0.203717 0.20538 0.209576 0.211224 0.20538 0.207028 0.211224 0.212856 0.207028 0.208646 0 0.00195913 0 0.00137885 0.00195913 0.00359536 0.00137885 0.00301677 0.00359536 0.00518186 0.00301677 0.00464264 0.00518186 0.006736 0.00464264 0.00622419 0.006736 0.00828896 0.00622419 0.0077878 0.00828896 0.00985455 0.0077878 0.00934875 0.00985455 0.0114338 0.00934875 0.0109008 0.0114338 0.0130209 0.0109008 0.012413 0.0130209 0.0146024 0.012413 0.0138832 0.0146024 0.0161785 0.0138832 0.0153308 0.0161785 0.0177568 0.0153308 0.0167985 0.0177568 0.0193399 0.0167985 0.0183041 0.0193399 0.0209319 0.0183041 0.0198352 0.0209319 0.0225386 0.0198352 0.0213846 0.0225386 0.0241622 0.0213846 0.0229515 0.0241622 0.0258003 0.0229515 0.0245342 0.0258003 0.0274486 0.0245342 0.0261271 0.0274486 0.0291037 0.0261271 0.027727 0.0291037 0.0307648 0.027727 0.029334 0.0307648 0.0324331 0.029334 0.0309497 0.0324331 0.0341119 0.0309497 0.0325754 0.0341119 0.0358048 0.0325754 0.0342131 0.0358048 0.0375124 0.0342131 0.0358629 0.0375124 0.0392302 0.0358629 0.0375207 0.0392302 0.0409521 0.0375207 0.0391819 0.0409521 0.0426782 0.0391819 0.0408472 0.0426782 0.0444131 0.0408472 0.0425214 0.0444131 0.0461561 0.0425214 0.0442081 0.0461561 0.0479049 0.0442081 0.0459073 0.0479049 0.0496592 0.0459073 0.0476156 0.0496592 0.0514205 0.0476156 0.0493284 0.0514205 0.0531932 0.0493284 0.0510431 0.0531932 0.0549769 0.0510431 0.0527623 0.0549769 0.0567602 0.0527623 0.0544884 0.0567602 0.0585356 0.0544884 0.0562199 0.0585356 0.0603023 0.0562199 0.0579555 0.0603023 0.0620656 0.0579555 0.0596951 0.0620656 0.0638445 0.0596951 0.0614411 0.0638445 0.0656625 0.0614411 0.063197 0.0656625 0.0674878 0.063197 0.0649586 0.0674878 0.0692914 0.0649586 0.0667166 0.0692914 0.0710713 0.0667166 0.0684674 0.0710713 0.0728258 0.0684674 0.0702114 0.0728258 0.0745585 0.0702114 0.0719562 0.0745585 0.0762926 0.0719562 0.0737227 0.0762926 0.0781225 0.0737227 0.0755171 0.0781225 0.0800108 0.0755171 0.0772999 0.0800108 0.0818294 0.0772999 0.0790626 0.0818294 0.0835995 0.07906