# vtk DataFile Version 3.0
#This file was generated by the deal.II library on 2021/2/11 at 23:49:35
ASCII
DATASET UNSTRUCTURED_GRID

POINTS 28800 double
0 -0.5 0
0.0166667 -0.5 0
0 -0.483333 0
0.0166667 -0.483333 0
0.0166667 -0.5 0
0.0333333 -0.5 0
0.0166667 -0.483333 0
0.0333333 -0.483333 0
0.0333333 -0.5 0
0.05 -0.5 0
0.0333333 -0.483333 0
0.05 -0.483333 0
0.05 -0.5 0
0.0666667 -0.5 0
0.05 -0.483333 0
0.0666667 -0.483333 0
0.0666667 -0.5 0
0.0833333 -0.5 0
0.0666667 -0.483333 0
0.0833333 -0.483333 0
0.0833333 -0.5 0
0.1 -0.5 0
0.0833333 -0.483333 0
0.1 -0.483333 0
0.1 -0.5 0
0.116667 -0.5 0
0.1 -0.483333 0
0.116667 -0.483333 0
0.116667 -0.5 0
0.133333 -0.5 0
0.116667 -0.483333 0
0.133333 -0.483333 0
0.133333 -0.5 0
0.15 -0.5 0
0.133333 -0.483333 0
0.15 -0.483333 0
0.15 -0.5 0
0.166667 -0.5 0
0.15 -0.483333 0
0.166667 -0.483333 0
0.166667 -0.5 0
0.183333 -0.5 0
0.166667 -0.483333 0
0.183333 -0.483333 0
0.183333 -0.5 0
0.2 -0.5 0
0.183333 -0.483333 0
0.2 -0.483333 0
0.2 -0.5 0
0.216667 -0.5 0
0.2 -0.483333 0
0.216667 -0.483333 0
0.216667 -0.5 0
0.233333 -0.5 0
0.216667 -0.483333 0
0.233333 -0.483333 0
0.233333 -0.5 0
0.25 -0.5 0
0.233333 -0.483333 0
0.25 -0.483333 0
0.25 -0.5 0
0.266667 -0.5 0
0.25 -0.483333 0
0.266667 -0.483333 0
0.266667 -0.5 0
0.283333 -0.5 0
0.266667 -0.483333 0
0.283333 -0.483333 0
0.283333 -0.5 0
0.3 -0.5 0
0.283333 -0.483333 0
0.3 -0.483333 0
0.3 -0.5 0
0.316667 -0.5 0
0.3 -0.483333 0
0.316667 -0.483333 0
0.316667 -0.5 0
0.333333 -0.5 0
0.316667 -0.483333 0
0.333333 -0.483333 0
0.333333 -0.5 0
0.35 -0.5 0
0.333333 -0.483333 0
0.35 -0.483333 0
0.35 -0.5 0
0.366667 -0.5 0
0.35 -0.483333 0
0.366667 -0.483333 0
0.366667 -0.5 0
0.383333 -0.5 0
0.366667 -0.483333 0
0.383333 -0.483333 0
0.383333 -0.5 0
0.4 -0.5 0
0.383333 -0.483333 0
0.4 -0.483333 0
0.4 -0.5 0
0.416667 -0.5 0
0.4 -0.483333 0
0.416667 -0.483333 0
0.416667 -0.5 0
0.433333 -0.5 0
0.416667 -0.483333 0
0.433333 -0.483333 0
0.433333 -0.5 0
0.45 -0.5 0
0.433333 -0.483333 0
0.45 -0.483333 0
0.45 -0.5 0
0.466667 -0.5 0
0.45 -0.483333 0
0.466667 -0.483333 0
0.466667 -0.5 0
0.483333 -0.5 0
0.466667 -0.483333 0
0.483333 -0.483333 0
0.483333 -0.5 0
0.5 -0.5 0
0.483333 -0.483333 0
0.5 -0.483333 0
0.5 -0.5 0
0.516667 -0.5 0
0.5 -0.483333 0
0.516667 -0.483333 0
0.516667 -0.5 0
0.533333 -0.5 0
0.516667 -0.483333 0
0.533333 -0.483333 0
0.533333 -0.5 0
0.55 -0.5 0
0.533333 -0.483333 0
0.55 -0.483333 0
0.55 -0.5 0
0.566667 -0.5 0
0.55 -0.483333 0
0.566667 -0.483333 0
0.566667 -0.5 0
0.583333 -0.5 0
0.566667 -0.483333 0
0.583333 -0.483333 0
0.583333 -0.5 0
0.6 -0.5 0
0.583333 -0.483333 0
0.6 -0.483333 0
0.6 -0.5 0
0.616667 -0.5 0
0.6 -0.483333 0
0.616667 -0.483333 0
0.616667 -0.5 0
0.633333 -0.5 0
0.616667 -0.483333 0
0.633333 -0.483333 0
0.633333 -0.5 0
0.65 -0.5 0
0.633333 -0.483333 0
0.65 -0.483333 0
0.65 -0.5 0
0.666667 -0.5 0
0.65 -0.483333 0
0.666667 -0.483333 0
0.666667 -0.5 0
0.683333 -0.5 0
0.666667 -0.483333 0
0.683333 -0.483333 0
0.683333 -0.5 0
0.7 -0.5 0
0.683333 -0.483333 0
0.7 -0.483333 0
0.7 -0.5 0
0.716667 -0.5 0
0.7 -0.483333 0
0.716667 -0.483333 0
0.716667 -0.5 0
0.733333 -0.5 0
0.716667 -0.483333 0
0.733333 -0.483333 0
0.733333 -0.5 0
0.75 -0.5 0
0.733333 -0.483333 0
0.75 -0.483333 0
0.75 -0.5 0
0.766667 -0.5 0
0.75 -0.483333 0
0.766667 -0.483333 0
0.766667 -0.5 0
0.783333 -0.5 0
0.766667 -0.483333 0
0.783333 -0.483333 0
0.783333 -0.5 0
0.8 -0.5 0
0.783333 -0.483333 0
0.8 -0.483333 0
0.8 -0.5 0
0.816667 -0.5 0
0.8 -0.483333 0
0.816667 -0.483333 0
0.816667 -0.5 0
0.833333 -0.5 0
0.816667 -0.483333 0
0.833333 -0.483333 0
0.833333 -0.5 0
0.85 -0.5 0
0.833333 -0.483333 0
0.85 -0.483333 0
0.85 -0.5 0
0.866667 -0.5 0
0.85 -0.483333 0
0.866667 -0.483333 0
0.866667 -0.5 0
0.883333 -0.5 0
0.866667 -0.483333 0
0.883333 -0.483333 0
0.883333 -0.5 0
0.9 -0.5 0
0.883333 -0.483333 0
0.9 -0.483333 0
0.9 -0.5 0
0.916667 -0.5 0
0.9 -0.483333 0
0.916667 -0.483333 0
0.916667 -0.5 0
0.933333 -0.5 0
0.916667 -0.483333 0
0.933333 -0.483333 0
0.933333 -0.5 0
0.95 -0.5 0
0.933333 -0.483333 0
0.95 -0.483333 0
0.95 -0.5 0
0.966667 -0.5 0
0.95 -0.483333 0
0.966667 -0.483333 0
0.966667 -0.5 0
0.983333 -0.5 0
0.966667 -0.483333 0
0.983333 -0.483333 0
0.983333 -0.5 0
1 -0.5 0
0.983333 -0.483333 0
1 -0.483333 0
1 -0.5 0
1.01667 -0.5 0
1 -0.483333 0
1.01667 -0.483333 0
1.01667 -0.5 0
1.03333 -0.5 0
1.01667 -0.483333 0
1.03333 -0.483333 0
1.03333 -0.5 0
1.05 -0.5 0
1.03333 -0.483333 0
1.05 -0.483333 0
1.05 -0.5 0
1.06667 -0.5 0
1.05 -0.483333 0
1.06667 -0.483333 0
1.06667 -0.5 0
1.08333 -0.5 0
1.06667 -0.483333 0
1.08333 -0.483333 0
1.08333 -0.5 0
1.1 -0.5 0
1.08333 -0.483333 0
1.1 -0.483333 0
1.1 -0.5 0
1.11667 -0.5 0
1.1 -0.483333 0
1.11667 -0.483333 0
1.11667 -0.5 0
1.13333 -0.5 0
1.11667 -0.483333 0
1.13333 -0.483333 0
1.13333 -0.5 0
1.15 -0.5 0
1.13333 -0.483333 0
1.15 -0.483333 0
1.15 -0.5 0
1.16667 -0.5 0
1.15 -0.483333 0
1.16667 -0.483333 0
1.16667 -0.5 0
1.18333 -0.5 0
1.16667 -0.483333 0
1.18333 -0.483333 0
1.18333 -0.5 0
1.2 -0.5 0
1.18333 -0.483333 0
1.2 -0.483333 0
1.2 -0.5 0
1.21667 -0.5 0
1.2 -0.483333 0
1.21667 -0.483333 0
1.21667 -0.5 0
1.23333 -0.5 0
1.21667 -0.483333 0
1.23333 -0.483333 0
1.23333 -0.5 0
1.25 -0.5 0
1.23333 -0.483333 0
1.25 -0.483333 0
1.25 -0.5 0
1.26667 -0.5 0
1.25 -0.483333 0
1.26667 -0.483333 0
1.26667 -0.5 0
1.28333 -0.5 0
1.26667 -0.483333 0
1.28333 -0.483333 0
1.28333 -0.5 0
1.3 -0.5 0
1.28333 -0.483333 0
1.3 -0.483333 0
1.3 -0.5 0
1.31667 -0.5 0
1.3 -0.483333 0
1.31667 -0.483333 0
1.31667 -0.5 0
1.33333 -0.5 0
1.31667 -0.483333 0
1.33333 -0.483333 0
1.33333 -0.5 0
1.35 -0.5 0
1.33333 -0.483333 0
1.35 -0.483333 0
1.35 -0.5 0
1.36667 -0.5 0
1.35 -0.483333 0
1.36667 -0.483333 0
1.36667 -0.5 0
1.38333 -0.5 0
1.36667 -0.483333 0
1.38333 -0.483333 0
1.38333 -0.5 0
1.4 -0.5 0
1.38333 -0.483333 0
1.4 -0.483333 0
1.4 -0.5 0
1.41667 -0.5 0
1.4 -0.483333 0
1.41667 -0.483333 0
1.41667 -0.5 0
1.43333 -0.5 0
1.41667 -0.483333 0
1.43333 -0.483333 0
1.43333 -0.5 0
1.45 -0.5 0
1.43333 -0.483333 0
1.45 -0.483333 0
1.45 -0.5 0
1.46667 -0.5 0
1.45 -0.483333 0
1.46667 -0.483333 0
1.46667 -0.5 0
1.48333 -0.5 0
1.46667 -0.483333 0
1.48333 -0.483333 0
1.48333 -0.5 0
1.5 -0.5 0
1.48333 -0.483333 0
1.5 -0.483333 0
1.5 -0.5 0
1.51667 -0.5 0
1.5 -0.483333 0
1.51667 -0.483333 0
1.51667 -0.5 0
1.53333 -0.5 0
1.51667 -0.483333 0
1.53333 -0.483333 0
1.53333 -0.5 0
1.55 -0.5 0
1.53333 -0.483333 0
1.55 -0.483333 0
1.55 -0.5 0
1.56667 -0.5 0
1.55 -0.483333 0
1.56667 -0.483333 0
1.56667 -0.5 0
1.58333 -0.5 0
1.56667 -0.483333 0
1.58333 -0.483333 0
1.58333 -0.5 0
1.6 -0.5 0
1.58333 -0.483333 0
1.6 -0.483333 0
1.6 -0.5 0
1.61667 -0.5 0
1.6 -0.483333 0
1.61667 -0.483333 0
1.61667 -0.5 0
1.63333 -0.5 0
1.61667 -0.483333 0
1.63333 -0.483333 0
1.63333 -0.5 0
1.65 -0.5 0
1.63333 -0.483333 0
1.65 -0.483333 0
1.65 -0.5 0
1.66667 -0.5 0
1.65 -0.483333 0
1.66667 -0.483333 0
1.66667 -0.5 0
1.68333 -0.5 0
1.66667 -0.483333 0
1.68333 -0.483333 0
1.68333 -0.5 0
1.7 -0.5 0
1.68333 -0.483333 0
1.7 -0.483333 0
1.7 -0.5 0
1.71667 -0.5 0
1.7 -0.483333 0
1.71667 -0.483333 0
1.71667 -0.5 0
1.73333 -0.5 0
1.71667 -0.483333 0
1.73333 -0.483333 0
1.73333 -0.5 0
1.75 -0.5 0
1.73333 -0.483333 0
1.75 -0.483333 0
1.75 -0.5 0
1.76667 -0.5 0
1.75 -0.483333 0
1.76667 -0.483333 0
1.76667 -0.5 0
1.78333 -0.5 0
1.76667 -0.483333 0
1.78333 -0.483333 0
1.78333 -0.5 0
1.8 -0.5 0
1.78333 -0.483333 0
1.8 -0.483333 0
1.8 -0.5 0
1.81667 -0.5 0
1.8 -0.483333 0
1.81667 -0.483333 0
1.81667 -0.5 0
1.83333 -0.5 0
1.81667 -0.483333 0
1.83333 -0.483333 0
1.83333 -0.5 0
1.85 -0.5 0
1.83333 -0.483333 0
1.85 -0.483333 0
1.85 -0.5 0
1.86667 -0.5 0
1.85 -0.483333 0
1.86667 -0.483333 0
1.86667 -0.5 0
1.88333 -0.5 0
1.86667 -0.483333 0
1.88333 -0.483333 0
1.88333 -0.5 0
1.9 -0.5 0
1.88333 -0.483333 0
1.9 -0.483333 0
1.9 -0.5 0
1.91667 -0.5 0
1.9 -0.483333 0
1.91667 -0.483333 0
1.91667 -0.5 0
1.93333 -0.5 0
1.91667 -0.483333 0
1.93333 -0.483333 0
1.93333 -0.5 0
1.95 -0.5 0
1.93333 -0.483333 0
1.95 -0.483333 0
1.95 -0.5 0
1.96667 -0.5 0
1.95 -0.483333 0
1.96667 -0.483333 0
1.96667 -0.5 0
1.98333 -0.5 0
1.96667 -0.483333 0
1.98333 -0.483333 0
1.98333 -0.5 0
2 -0.5 0
1.98333 -0.483333 0
2 -0.483333 0
0 -0.483333 0
0.0166667 -0.483333 0
0 -0.466667 0
0.0166667 -0.466667 0
0.0166667 -0.483333 0
0.0333333 -0.483333 0
0.0166667 -0.466667 0
0.0333333 -0.466667 0
0.0333333 -0.483333 0
0.05 -0.483333 0
0.0333333 -0.466667 0
0.05 -0.466667 0
0.05 -0.483333 0
0.0666667 -0.483333 0
0.05 -0.466667 0
0.0666667 -0.466667 0
0.0666667 -0.483333 0
0.0833333 -0.483333 0
0.0666667 -0.466667 0
0.0833333 -0.466667 0
0.0833333 -0.483333 0
0.1 -0.483333 0
0.0833333 -0.466667 0
0.1 -0.466667 0
0.1 -0.483333 0
0.116667 -0.483333 0
0.1 -0.466667 0
0.116667 -0.466667 0
0.116667 -0.483333 0
0.133333 -0.483333 0
0.116667 -0.466667 0
0.133333 -0.466667 0
0.133333 -0.483333 0
0.15 -0.483333 0
0.133333 -0.466667 0
0.15 -0.466667 0
0.15 -0.483333 0
0.166667 -0.483333 0
0.15 -0.466667 0
0.166667 -0.466667 0
0.166667 -0.483333 0
0.183333 -0.483333 0
0.166667 -0.466667 0
0.183333 -0.466667 0
0.183333 -0.483333 0
0.2 -0.483333 0
0.183333 -0.466667 0
0.2 -0.466667 0
0.2 -0.483333 0
0.216667 -0.483333 0
0.2 -0.466667 0
0.216667 -0.466667 0
0.216667 -0.483333 0
0.233333 -0.483333 0
0.216667 -0.466667 0
0.233333 -0.466667 0
0.233333 -0.483333 0
0.25 -0.483333 0
0.233333 -0.466667 0
0.25 -0.466667 0
0.25 -0.483333 0
0.266667 -0.483333 0
0.25 -0.466667 0
0.266667 -0.466667 0
0.266667 -0.483333 0
0.283333 -0.483333 0
0.266667 -0.466667 0
0.283333 -0.466667 0
0.283333 -0.483333 0
0.3 -0.483333 0
0.283333 -0.466667 0
0.3 -0.466667 0
0.3 -0.483333 0
0.316667 -0.483333 0
0.3 -0.466667 0
0.316667 -0.466667 0
0.316667 -0.483333 0
0.333333 -0.483333 0
0.316667 -0.466667 0
0.333333 -0.466667 0
0.333333 -0.483333 0
0.35 -0.483333 0
0.333333 -0.466667 0
0.35 -0.466667 0
0.35 -0.483333 0
0.366667 -0.483333 0
0.35 -0.466667 0
0.366667 -0.466667 0
0.366667 -0.483333 0
0.383333 -0.483333 0
0.366667 -0.466667 0
0.383333 -0.466667 0
0.383333 -0.483333 0
0.4 -0.483333 0
[...]
POINT_DATA 28800
SCALARS x1_displacement double 1
LOOKUP_TABLE default
0 0.00289946 0 0.00138152 0.00289946 0.00514977 0.00138152 0.00347203 0.00514977 0.00714562 0.00347203 0.00544787 0.00714562 0.0090438 0.00544787 0.00731309 0.0090438 0.0108576 0.00731309 0.00910901 0.0108576 0.0126065 0.00910901 0.0108526 0.0126065 0.0143018 0.0108526 0.0125535 0.0143018 0.0159535 0.0125535 0.0142189 0.0159535 0.0175707 0.0142189 0.0158556 0.0175707 0.0191618 0.0158556 0.0174697 0.0191618 0.020734 0.0174697 0.0190665 0.020734 0.022293 0.0190665 0.0206502 0.022293 0.0238428 0.0206502 0.0222239 0.0238428 0.0253861 0.0222239 0.02379 0.0253861 0.0269248 0.02379 0.0253502 0.0269248 0.0284602 0.0253502 0.026906 0.0284602 0.0299933 0.026906 0.0284585 0.0299933 0.0315252 0.0284585 0.0300088 0.0315252 0.0330568 0.0300088 0.0315581 0.0330568 0.0345892 0.0315581 0.0331073 0.0345892 0.0361234 0.0331073 0.0346575 0.0361234 0.0376603 0.0346575 0.0362095 0.0376603 0.039201 0.0362095 0.0377644 0.039201 0.0407462 0.0377644 0.0393228 0.0407462 0.0422968 0.0393228 0.0408854 0.0422968 0.0438533 0.0408854 0.0424529 0.0438533 0.0454164 0.0424529 0.0440259 0.0454164 0.0469865 0.0440259 0.0456046 0.0469865 0.048564 0.0456046 0.0471896 0.048564 0.0501492 0.0471896 0.0487811 0.0501492 0.0517424 0.0487811 0.0503794 0.0517424 0.0533438 0.0503794 0.0519847 0.0533438 0.0549537 0.0519847 0.0535973 0.0549537 0.0565723 0.0535973 0.0552173 0.0565723 0.0581998 0.0552173 0.0568451 0.0581998 0.0598365 0.0568451 0.0584807 0.0598365 0.0614826 0.0584807 0.0601244 0.0614826 0.0631383 0.0601244 0.0617763 0.0631383 0.0648039 0.0617763 0.0634366 0.0648039 0.0664795 0.0634366 0.0651054 0.0664795 0.0681651 0.0651054 0.0667826 0.0681651 0.0698608 0.0667826 0.0684683 0.0698608 0.0715664 0.0684683 0.0701621 0.0715664 0.0732816 0.0701621 0.071864 0.0732816 0.0750058 0.071864 0.0735733 0.0750058 0.0767382 0.0735733 0.0752894 0.0767382 0.0784779 0.0752894 0.0770115 0.0784779 0.0802237 0.0770115 0.0787387 0.0802237 0.0819742 0.0787387 0.0804699 0.0819742 0.083728 0.0804699 0.0822039 0.083728 0.0854835 0.0822039 0.0839395 0.0854835 0.0872392 0.0839395 0.0856755 0.0872392 0.0889939 0.0856755 0.0874109 0.0889939 0.0907464 0.0874109 0.0891447 0.0907464 0.0924958 0.0891447 0.0908762 0.0924958 0.0942413 0.0908762 0.0926047 0.0942413 0.0959825 0.0926047 0.0943298 0.0959825 0.0977191 0.0943298 0.0960511 0.0977191 0.0994509 0.0960511 0.0977685 0.0994509 0.101178 0.0977685 0.0994816 0.101178 0.102899 0.0994816 0.10119 0.102899 0.104615 0.10119 0.102894 0.104615 0.106324 0.102894 0.104592 0.106324 0.108026 0.104592 0.106284 0.108026 0.109719 0.106284 0.107968 0.109719 0.111402 0.107968 0.109644 0.111402 0.113071 0.109644 0.111309 0.113071 0.114724 0.111309 0.112962 0.114724 0.116357 0.112962 0.114601 0.116357 0.117968 0.114601 0.116222 0.117968 0.119554 0.116222 0.117826 0.119554 0.121116 0.117826 0.119411 0.121116 0.122659 0.119411 0.12098 0.122659 0.124189 0.12098 0.122538 0.124189 0.12572 0.122538 0.124093 0.12572 0.127264 0.124093 0.125652 0.127264 0.128832 0.125652 0.127224 0.128832 0.130428 0.127224 0.128812 0.130428 0.132049 0.128812 0.130414 0.132049 0.133689 0.130414 0.132027 0.133689 0.13534 0.132027 0.133647 0.13534 0.136999 0.133647 0.135272 0.136999 0.138662 0.135272 0.136901 0.138662 0.140332 0.136901 0.138534 0.140332 0.142008 0.138534 0.140173 0.142008 0.143692 0.140173 0.141817 0.143692 0.145383 0.141817 0.143467 0.145383 0.147084 0.143467 0.145123 0.147084 0.148793 0.145123 0.146785 0.148793 0.150511 0.146785 0.148453 0.150511 0.152238 0.148453 0.150127 0.152238 0.153974 0.150127 0.151808 0.153974 0.155718 0.151808 0.153494 0.155718 0.157471 0.153494 0.155187 0.157471 0.159233 0.155187 0.156885 0.159233 0.161004 0.156885 0.15859 0.161004 0.162784 0.15859 0.160301 0.162784 0.164572 0.160301 0.162018 0.164572 0.16637 0.162018 0.163741 0.16637 0.168177 0.163741 0.16547 0.168177 0.169993 0.16547 0.167206 0.169993 0.171818 0.167206 0.168947 0.171818 0.173651 0.168947 0.170694 0.173651 0.175492 0.170694 0.172446 0.175492 0.177335 0.172446 0.174202 0.177335 0.179173 0.174202 0.175958 0.179173 0.180993 0.175958 0.177711 0.180993 0.182778 0.177711 0.179453 0.182778 0.184509 0.179453 0.181181 0.184509 0.186179 0.181181 0.182894 0.186179 0.187816 0.182894 0.184597 0.187816 0.189478 0.184597 0.186339 0.189478 0.191336 0.186339 0.188148 0.191336 0.193458 0.188148 0.189168 0.193458 0.193853 0.189168 0.18929 0.193853 0.193973 0.18929 0.189281 0.193973 0.194035 0.189281 0.18928 0.194035 0.194063 0.18928 0.189286 0.194063 0.194072 0.189286 0.189289 0.194072 0.194073 0.189289 0.189289 0 0.00138152 0 0.000872559 0.00138152 0.00347203 0.000872559 0.00231732 0.00347203 0.00544787 0.00231732 0.00401274 0.00544787 0.00731309 0.00401274 0.00575557 0.00731309 0.00910901 0.00575557 0.00749192 0.00910901 0.0108526 0.00749192 0.00920587 0.0108526 0.0125535 0.00920587 0.0108936 0.0125535 0.0142189 0.0108936 0.0125561 0.0142189 0.0158556 0.0125561 0.0141974 0.0158556 0.0174697 0.0141974 0.0158217 0.0174697 0.0190665 0.0158217 0.0174326 0.0190665 0.0206502 0.0174326 0.019033 0.0206502 0.0222239 0.019033 0.0206246 0.0222239 0.02379 0.0206246 0.0222088 0.02379 0.0253502 0.0222088 0.0237869 0.0253502 0.026906 0.0237869 0.0253599 0.026906 0.0284585 0.0253599 0.0269289 0.0284585 0.0300088 0.0269289 0.0284951 0.0300088 0.0315581 0.0284951 0.0300594 0.0315581 0.0331073 0.0300594 0.031623 0.0331073 0.0346575 0.031623 0.0331869 0.0346575 0.0362095 0.0331869 0.0347519 0.0362095 0.0377644 0.0347519 0.036319 0.0377644 0.0393228 0.036319 0.0378888 0.0393228 0.0408854 0.0378888 0.039462 0.0408854 0.0424529 0.039462 0.0410392 0.0424529 0.0440259 0.0410392 0.0426208 0.0440259 0.0456046 0.0426208 0.0442073 0.0456046 0.0471896 0.0442073 0.0457989 0.0471896 0.0487811 0.0457989 0.047396 0.0487811 0.0503794 0.047396 0.0489988 0.0503794 0.0519847 0.0489988 0.0506074 0.0519847 0.0535973 0.0506074 0.0522222 0.0535973 0.0552173 0.0522222 0.0538432 0.0552173 0.0568451 0.0538432 0.0554707 0.0568451 0.0584807 0.0554707 0.0571049 0.0584807 0.0601244 0.0571049 0.0587457 0.0601244 0.0617763 0.0587457 0.0603935 0.0617763 0.0634366 0.0603935 0.0620483 0.0634366 0.0651054 0.0620483 0.0637102 0.0651054 0.0667826 0.0637102 0.0653792 0.0667826 0.0684683 0.0653792 0.0670552 0.0684683 0.0701621 0.0670552 0.0687382 0.0701621 0.071864 0.0687382 0.0704278 0.071864 0.0735733 0.0704278 0.0721238 0.0735733 0.0752894 0.0721238 0.0738256 0.0752894 0.0770115 0.0738256 0.0755326 0.0770115 0.0787387 0.0755326 0.0772439 0.0787387 0.0804699 0.0772439 0.0789587 0.0804699 0.0822039 0.0789587 0.0806758 0.0822039 0.0839395 0.0806758 0.0823944 0.0839395 0.0856755 0.0823944 0.0841133 0.0856755 0.0874109 0.0841133 0.0858317 0.0874109 0.0891447 0.0858317 0.0875487 0.0891447 0.0908762 0.0875487 0.0892638 0.0908762 0.0926047 0.0892638 0.0909764 0.0926047 0.0943298 0.0909764 0.0926863 0.0943298 0.0960511 0.0926863 0.0943931 0.0960511 0.0977685 0.0943931 0.0960967 0.0977685 0.0994816 0.0960967 0.0977969 0.0994816 0.10119 0.0977969 0.0994936 0.10119 0.102894 0.0994936 0.101187 0.102894 0.104592 0.101187 0.102875 0.104592 0.106284 0.102875 0.10456 0.106284 0.107968 0.10456 0.106239 0.107968 0.109644 0.106239 0.107913 0.109644 0.111309 0.107913 0.109579 0.111309 0.112962 0.109579 0.111237 0.112962 0.114601 0.111237 0.112885 0.114601 0.116222 0.112885 0.11452 0.116222 0.117826 0.11452 0.11614 0.117826 0.119411 0.11614 0.117743 0.119411 0.12098 0.117743 0.119328 0.12098 0.122538 0.119328 0.120896 0.122538 0.124093 0.120896 0.122455 0.124093 0.125652 0.122455 0.124013 0.125652 0.127224 0.124013 0.12558 0.127224 0.128812 0.12558 0.127161 0.128812 0.130414 0.127161 0.128752 0.130414 0.132027 0.128752 0.130347 0.132027 0.133647 0.130347 0.13194 0.133647 0.135272 0.13194 0.133533 0.135272 0.136901 0.133533 0.135127 0.136901 0.138534 0.135127 0.136724 0.138534 0.140173 0.136724 0.138324 0.140173 0.141817 0.138324 0.139928 0.141817 0.143467 0.139928 0.141535 0.143467 0.145123 0.141535 0.143147 0.145123 0.146785 0.143147 0.144762 0.146785 0.148453 0.144762 0.14638 0.148453 0.150127 0.14638 0.148001 0.150127 0.151808 0.148001 0.149626 0.151808 0.153494 0.149626 0.151255 0.153494 0.155187 0.151255 0.152887 0.155187 0.156885 0.152887 0.154522 0.156885 0.15859 0.154522 0.15616 0.15859 0.160301 0.15616 0.157802 0.160301 0.162018 0.157802 0.159448 0.162018 0.163741 0.159448 0.161097 0.163741 0.16547 0.161097 0.162749 0.16547 0.167206 0.162749 0.164404 0.167206 0.168947 0.164404 0.166063 0.168947 0.170694 0.166063 0.167727 0.170694 0.172446 0.167727 0.169395 0.172446 0.174202 0.169395 0.171071 0.174202 0.175958 0.171071 0.172757 0.175958 0.177711 0.172757 0.174455 0.177711 0.179453 0.174455 0.176163 0.179453 0.181181 0.176163 0.177873 0.181181 0.182894 0.177873 0.17958 0.182894 0.184597 0.17958 0.18128 0.184597 0.186339 0.18128 0.182979 0.186339 0.188148 0.182979 0.184243 0.188148 0.189168 0.184243 0.184547 0.189168 0.18929 0.184547 0.184601 0.18929 0.189281 0.184601 0.184564 0.189281 0.18928 0.184564 0.18453 0.18928 0.189286 0.18453 0.184521 0.189286 0.189289 0.184521 0.184516 0.189289 0.189289 0.184516 0.18451 0 0.000872559 0 0.000243258 0.000872559 0.00231732 0.000243258 0.00111573 0.00231732 0.00401274 0.00111573 0.00265317 0.00401274 0.00575557 0.00265317 0.00428365 0.00575557 0.00749192 0.00428365 0.00595572 0.00749192 0.00920587 0.00595572 0.00763283 0.00920587 0.0108936 0.00763283 0.00929857 0.0108936 0.0125561 0.00929857 0.010949 0.0125561 0.0141974 0.010949 0.0125858 0.0141974 0.0158217 0.0125858 0.0142122 0.0158217 0.0174326 0.0142122 0.0158305 0.0174326 0.019033 0.0158305 0.0174418 0.019033 0.0206246 0.0174418 0.0190465 0.0206246 0.0222088 0.0190465 0.0206447 0.0222088 0.0237869 0.0206447 0.022237 0.0237869 0.0253599 0.022237 0.023824 0.0253599 0.0269289 0.023824 0.0254066 0.0269289 0.0284951 0.0254066 0.0269858 0.0284951 0.0300594 0.0269858 0.0285627 0.0300594 0.031623 0.0285627 0.0301383 0.031623 0.0331869 0.0301383 0.0317136 0.0331869 0.0347519 0.0317136 0.0332896 0.0347519 0.036319 0.0332896 0.034867 0.036319 0.0378888 0.034867 0.0364466 0.0378888 0.039462 0.0364466 0.038029 0.039462 0.0410392 0.038029 0.0396146 0.0410392 0.0426208 0.0396146 0.0412039 0.0426208 0.0442073 0.0412039 0.0427973 0.0442073 0.0457989 0.0427973 0.0443948 0.0457989 0.047396 0.0443948 0.0459968 0.047396 0.0489988 0.0459968 0.0476035 0.0489988 0.0506074 0.0476035 0.049215 0.0506074 0.0522222 0.049215 0.0508315 0.0522222 0.0538432 0.0508315 0.0524531 0.0538432 0.0554707 0.0524531 0.0540799 0.0554707 0.0571049 0.0540799 0.0557122 0.0571049 0.0587457 0.0557122 0.05735 0.0587457 0.0603935 0.05735 0.0589934 0.0603935 0.0620483 0.0589934 0.0606426 0.0620483 0.0637102 0.0606426 0.0622976 0.0637102 0.0653792 0.0622976 0.0639586 0.0653792 0.0670552 0.0639586 0.0656255 0.0670552 0.0687382 0.0656255 0.0672982 0.0687382 0.0704278 0.0672982 0.0689767 0.0704278 0.0721238 0.0689767 0.0706607 0.0721238 0.0738256 0.0706607 0.0723498 0.0738256 0.0755326 0.0723498 0.0740434 0.0755326 0.0772439 0.0740434 0.075741 0.0772439 0.0789587 0.075741 0.0774415 0.0789587 0.0806758 0.0774415 0.0791442 0.0806758 0.0823944 0.0791442 0.0808479 0.0823944 0.0841133 0.0808479 0.0825518 0.0841133 0.0858317 0.0825518 0.084255 0.0858317 0.0875487 0.084255 0.0859569 0.0875487 0.0892638 0.0859569 0.0876568 0.0892638 0.0909764 0.0876568 0.0893546 0.0909764 0.0926863 0.0893546 0.09105 0.0926863 0.0943931 0.09105 0.092743 0.0943931 0.0960967 0.092743 0.0944334 0.0960967 0.0977969 0.0944334 0.0961215 0.0977969 0.0994936 0.0961215 0.0978072 0.0994936 0.101187 0.0978072 0.0994906 0.101187 0.102875 0.0994906 0.101172 0.102875 0.10456 0.101172 0.10285 0.10456 0.106239 0.10285 0.104527 0.106239 0.107913 0.104527 0.1062 0.107913 0.109579 0.1062 0.10787 0.109579 0.111237 0.10787 0.109537 0.111237 0.112885 0.109537 0.111197 0.112885 0.11452 0.111197 0.112848 0.11452 0.11614 0.112848 0.114486 0.11614 0.117743 0.114486 0.116106 0.117743 0.119328 0.116106 0.117703 0.119328 0.120896 0.117703 0.119274 0.120896 0.122455 0.119274 0.120826 0.122455 0.124013 0.120826 0.122371 0.124013 0.12558 0.122371 0.123927 0.12558 0.127161 0.123927 0.1255 0.127161 0.128752 0.1255 0.127082 0.128752 0.130347 0.127082 0.128659 0.130347 0.13194 0.128659 0.130226 0.13194 0.133533 0.130226 0.131786 0.133533 0.135127 0.131786 0.133345 0.135127 0.136724 0.133345 0.134904 0.136724 0.138324 0.134904 0.136466 0.138324 0.139928 0.136466 0.13803 0.139928 0.141535 0.13803 0.139596 0.141535 0.143147 0.139596 0.141162 0.143147 0.144762 0.141162 0.14273 0.144762 0.14638 0.14273 0.144298 0.14638 0.148001 0.144298 0.145867 0.148001 0.149626 0.145867 0.147437 0.149626 0.151255 0.147437 0.149007 0.151255 0.152887 0.149007 0.150578 0.152887 0.154522 0.150578 0.15215 0.154522 0.15616 0.15215 0.153722 0.15616 0.157802 0.153722 0.155296 0.157802 0.159448 0.155296 0.156869 0.159448 0.161097 0.156869 0.158444 0.161097 0.162749 0.158444 0.160019 0.162749 0.164404 0.160019 0.161595 0.164404 0.166063 0.161595 0.163172 0.166063 0.167727 0.163172 0.164752 0.167727 0.169395 0.164752 0.166337 0.169395 0.171071 0.166337 0.167931 0.171071 0.172757 0.167931 0.16954 0.172757 0.174455 0.16954 0.171173 0.174455 0.176163 0.171173 0.172832 0.176163 0.177873 0.172832 0.174505 0.177873 0.17958 0.174505 0.176152 0.17958 0.18128 0.176152 0.177773 0.18128 0.182979 0.177773 0.179289 0.182979 0.184243 0.179289 0.179782 0.184243 0.184547 0.179782 0.179858 0.184547 0.184601 0.179858 0.17985 0.184601 0.184564 0.17985 0.179777 0.184564 0.18453 0.179777 0.179758 0.18453 0.184521 0.179758 0.179748 0.184521 0.184516 0.179748 0.179738 0.184516 0.18451 0.179738 0.179728 0 0.000243258 0 2.75838e-05 0.000243258 0.00111573 2.75838e-05 0.000217899 0.00111573 0.00265317 0.000217899 0.0011883 0.00265317 0.00428365 0.0011883 0.0028089 0.00428365 0.00595572 0.0028089 0.00444658 0.00595572 0.00763283 0.00444658 0.0060979 0.00763283 0.00929857 0.0060979 0.00774448 0.00929857 0.010949 0.00774448 0.00938052 0.010949 0.0125858 0.00938052 0.0110094 0.0125858 0.0142122 0.0110094 0.0126345 0.0142122 0.0158305 0.0126345 0.0142569 0.0158305 0.0174418 0.0142569 0.0158758 0.0174418 0.0190465 0.0158758 0.0174901 0.0190465 0.0206447 0.0174901 0.0190989 0.0206447 0.022237 0.0190989 0.020702 0.022237 0.023824 0.020702 0.0222998 0.023824 0.0254066 0.0222998 0.023893 0.0254066 0.0269858 0.023893 0.0254825 0.0269858 0.0285627 0.0254825 0.0270693 0.0285627 0.0301383 0.0270693 0.0286546 0.0301383 0.0317136 0.0286546 0.0302393 0.0317136 0.0332896 0.0302393 0.0318243 0.0332896 0.034867 0.0318243 0.0334105 0.034867 0.0364466 0.0334105 0.0349984 0.0364466 0.038029 0.0349984 0.0365887 0.038029 0.0396146 0.0365887 0.0381817 0.0396146 0.0412039 0.0381817 0.0397778 0.0412039 0.0427973 0.0397778 0.0413772 0.0427973 0.0443948 0.0413772 0.04298 0.0443948 0.0459968 0.04298 0.0445864 0.0459968 0.0476035 0.0445864 0.0461964 0.0476035 0.049215 0.0461964 0.0478103 0.049215 0.0508315 0.0478103 0.0494281 0.0508315 0.0524531 0.0494281 0.0510499 0.0524531 0.0540799 0.0510499 0.0526757 0.0540799 0.0557122 0.0526757 0.0543059 0.0557122 0.05735 0.0543059 0.0559404 0.05735 0.0589934 0.0559404 0.0575793 0.0589934 0.0606426 0.0575793 0.0592229 0.0606426 0.0622976 0.0592229 0.0608712 0.0622976 0.0639586 0.0608712 0.0625244 0.0639586 0.0656255 0.0625244 0.0641824 0.0656255 0.0672982 0.0641824 0.0658455 0.0672982 0.0689767 0.0658455 0.0675136 0.0689767 0.0706607 0.0675136 0.0691865 0.0706607 0.0723498 0.0691865 0.0708641 0.0723498 0.0740434 0.0708641 0.0725459 0.0740434 0.075741 0.0725459 0.0742313 0.075741 0.0774415 0.0742313 0.0759194 0.0774415 0.0791442 0.0759194 0.0776093 0.0791442 0.0808479 0.0776093 0.0793 0.0808479 0.0825518 0.0793 0.0809905 0.0825518 0.084255 0.0809905 0.08268 0.084255 0.0859569 0.08268 0.0843679 0.0859569 0.0876568 0.0843679 0.0860538 0.0876568 0.0893546 0.0860538 0.0877376 0.0893546 0.09105 0.0877376 0.0894192 0.09105 0.092743 0.0894192 0.0910988 0.092743 0.0944334 0.0910988 0.0927766 0.0944334 0.0961215 0.0927766 0.094453 0.0961215 0.0978072 0.094453 0.0961283 0.0978072 0.0994906 0.0961283 0.0978027 0.0994906 0.101172 0.0978027 0.0994767 0.101172 0.10285 0.0994767 0.101151 0.10285 0.104527 0.101151 0.102825 0.104527 0.1062 0.102825 0.104499 0.1062 0.10787 0.104499 0.106174 0.10787 0.109537 0.106174 0.10785 0.109537 0.111197 0.10785 0.109524 0.111197 0.112848 0.109524 0.111194 0.112848 0.114486 0.111194 0.112855 0.114486 0.116106 0.112855 0.114498 0.116106 0.117703 0.114498 0.116112 0.117703 0.119274 0.116112 0.117688 0.119274 0.120826 0.117688 0.119227 0.120826 0.122371 0.119227 0.120748 0.122371 0.123927 0.120748 0.122283 0.123927 0.1255 0.122283 0.123847 0.1255 0.127082 0.123847 0.125421 0.127082 0.128659 0.125421 0.126977 0.128659 0.130226 0.126977 0.12851 0.130226 0.131786 0.12851 0.130034 0.131786 0.133345 0.130034 0.131557 0.133345 0.134904 0.131557 0.133081 0.134904 0.136466 0.133081 0.134606 0.136466 0.13803 0.134606 0.136131 0.13803 0.139596 0.136131 0.137654 0.139596 0.141162 0.137654 0.139176 0.141162 0.14273 0.139176 0.140696 0.14273 0.144298 0.140696 0.142214 0.144298 0.145867 0.142214 0.143731 0.145867 0.147437 0.143731 0.145245 0.147437 0.149007 0.145245 0.146757 0.149007 0.150578 0.146757 0.148268 0.150578 0.15215 0.148268 0.149776 0.15215 0.153722 0.149776 0.151283 0.153722 0.155296 0.151283 0.152787 0.155296 0.156869 0.152787 0.15429 0.156869 0.158444 0.15429 0.15579 0.158444 0.160019 0.15579 0.157288 0.160019 0.161595 0.157288 0.158785 0.161595 0.163172 0.158785 0.16028 0.163172 0.164752 0.16028 0.161775 0.164752 0.166337 0.161775 0.163272 0.166337 0.167931 0.163272 0.164775 0.167931 0.16954 0.164775 0.166291 0.16954 0.171173 0.166291 0.167831 0.171173 0.172832 0.167831 0.169406 0.172832 0.174505 0.169406 0.171015 0.174505 0.176152 0.171015 0.172608 0.176152 0.177773 0.172608 0.174103 0.177773 0.179289 0.174103 0.174978 0.179289 0.179782 0.174978 0.175135 0.179782 0.179858 0.175135 0.175117 0.179858 0.17985 0.175117 0.175036 0.17985 0.179777 0.175036 0.174986 0.179777 0.179758 0.174986 0.174966 0.179758 0.179748 0.174966 0.174954 0.179748 0.179738 0.174954 0.174943 0.179738 0.179728 0.174943 0.174931 0 2.75838e-05 0 -2.14037e-07 2.75838e-05 0.000217899 -2.14037e-07 2.23837e-05 0.000217899 0.0011883 2.23837e-05 0.000236876 0.0011883 0.0028089 0.000236876 0.0012567 0.0028089 0.00444658 0.0012567 0.00292408 0.00444658 0.0060979 0.00292408 0.00457257 0.0060979 0.00774448 0.00457257 0.00620946 0.00774448 0.00938052 0.00620946 0.00783565 0.00938052 0.0110094 0.00783565 0.00945785 0.0110094 0.0126345 0.00945785 0.0110827 0.0126345 0.0142569 0.0110827 0.012709 0.0142569 0.0158758 0.012709 0.0143342 0.0158758 0.0174901 0.0143342 0.0159557 0.0174901 0.0190989 0.0159557 0.0175721 0.0190989 0.020702 0.0175721 0.0191829 0.020702 0.0222998 0.0191829 0.0207884 0.0222998 0.023893 0.0207884 0.0223892 0.023893 0.0254825 0.0223892 0.0239863 0.0254825 0.0270693 0.0239863 0.0255806 0.0270693 0.0286546 0.0255806 0.0271733 0.0286546 0.0302393 0.0271733 0.0287654 0.0302393 0.0318243 0.0287654 0.0303577 0.0318243 0.0334105 0.0303577 0.0319511 0.0334105 0.0349984 0.0319511 0.0335461 0.0349984 0.0365887 0.0335461 0.0351432 0.0365887 0.0381817 0.0351432 0.0367426 0.0381817 0.0397778 0.0367426 0.0383447 0.0397778 0.0413772 0.0383447 0.0399494 0.0413772 0.04298 0.0399494 0.0415569 0.04298 0.0445864 0.0415569 0.0431671 0.0445864 0.0461964 0.0431671 0.0447802 0.0461964 0.0478103 0.0447802 0.0463961 0.0478103 0.0494281 0.0463961 0.0480148 0.0494281 0.0510499 0.0480148 0.0496365 0.0510499 0.0526757 0.0496365 0.0512612 0.0526757 0.0543059 0.0512612 0.052889 0.0543059 0.0559404 0.052889 0.0545201 0.0559404 0.0575793 0.0545201 0.0561545 0.0575793 0.0592229 0.0561545 0.0577925 0.0592229 0.0608712 0.0577925 0.0594341 0.0608712 0.0625244 0.0594341 0.0610796 0.0625244 0.0641824 0.0610796 0.0627292 0.0641824 0.0658455 0.0627292 0.064383 0.0658455 0.0675136 0.064383 0.0660412 0.0675136 0.0691865 0.0660412 0.0677038 0.0691865 0.0708641 0.0677038 0.0693708 0.0708641 0.0725459 0.069