# vtk DataFile Version 3.0
#This file was generated by the deal.II library on 2021/2/12 at 0:13:52
ASCII
DATASET UNSTRUCTURED_GRID

POINTS 28800 double
0 -0.5 0
0.0166667 -0.5 0
0 -0.483333 0
0.0166667 -0.483333 0
0.0166667 -0.5 0
0.0333333 -0.5 0
0.0166667 -0.483333 0
0.0333333 -0.483333 0
0.0333333 -0.5 0
0.05 -0.5 0
0.0333333 -0.483333 0
0.05 -0.483333 0
0.05 -0.5 0
0.0666667 -0.5 0
0.05 -0.483333 0
0.0666667 -0.483333 0
0.0666667 -0.5 0
0.0833333 -0.5 0
0.0666667 -0.483333 0
0.0833333 -0.483333 0
0.0833333 -0.5 0
0.1 -0.5 0
0.0833333 -0.483333 0
0.1 -0.483333 0
0.1 -0.5 0
0.116667 -0.5 0
0.1 -0.483333 0
0.116667 -0.483333 0
0.116667 -0.5 0
0.133333 -0.5 0
0.116667 -0.483333 0
0.133333 -0.483333 0
0.133333 -0.5 0
0.15 -0.5 0
0.133333 -0.483333 0
0.15 -0.483333 0
0.15 -0.5 0
0.166667 -0.5 0
0.15 -0.483333 0
0.166667 -0.483333 0
0.166667 -0.5 0
0.183333 -0.5 0
0.166667 -0.483333 0
0.183333 -0.483333 0
0.183333 -0.5 0
0.2 -0.5 0
0.183333 -0.483333 0
0.2 -0.483333 0
0.2 -0.5 0
0.216667 -0.5 0
0.2 -0.483333 0
0.216667 -0.483333 0
0.216667 -0.5 0
0.233333 -0.5 0
0.216667 -0.483333 0
0.233333 -0.483333 0
0.233333 -0.5 0
0.25 -0.5 0
0.233333 -0.483333 0
0.25 -0.483333 0
0.25 -0.5 0
0.266667 -0.5 0
0.25 -0.483333 0
0.266667 -0.483333 0
0.266667 -0.5 0
0.283333 -0.5 0
0.266667 -0.483333 0
0.283333 -0.483333 0
0.283333 -0.5 0
0.3 -0.5 0
0.283333 -0.483333 0
0.3 -0.483333 0
0.3 -0.5 0
0.316667 -0.5 0
0.3 -0.483333 0
0.316667 -0.483333 0
0.316667 -0.5 0
0.333333 -0.5 0
0.316667 -0.483333 0
0.333333 -0.483333 0
0.333333 -0.5 0
0.35 -0.5 0
0.333333 -0.483333 0
0.35 -0.483333 0
0.35 -0.5 0
0.366667 -0.5 0
0.35 -0.483333 0
0.366667 -0.483333 0
0.366667 -0.5 0
0.383333 -0.5 0
0.366667 -0.483333 0
0.383333 -0.483333 0
0.383333 -0.5 0
0.4 -0.5 0
0.383333 -0.483333 0
0.4 -0.483333 0
0.4 -0.5 0
0.416667 -0.5 0
0.4 -0.483333 0
0.416667 -0.483333 0
0.416667 -0.5 0
0.433333 -0.5 0
0.416667 -0.483333 0
0.433333 -0.483333 0
0.433333 -0.5 0
0.45 -0.5 0
0.433333 -0.483333 0
0.45 -0.483333 0
0.45 -0.5 0
0.466667 -0.5 0
0.45 -0.483333 0
0.466667 -0.483333 0
0.466667 -0.5 0
0.483333 -0.5 0
0.466667 -0.483333 0
0.483333 -0.483333 0
0.483333 -0.5 0
0.5 -0.5 0
0.483333 -0.483333 0
0.5 -0.483333 0
0.5 -0.5 0
0.516667 -0.5 0
0.5 -0.483333 0
0.516667 -0.483333 0
0.516667 -0.5 0
0.533333 -0.5 0
0.516667 -0.483333 0
0.533333 -0.483333 0
0.533333 -0.5 0
0.55 -0.5 0
0.533333 -0.483333 0
0.55 -0.483333 0
0.55 -0.5 0
0.566667 -0.5 0
0.55 -0.483333 0
0.566667 -0.483333 0
0.566667 -0.5 0
0.583333 -0.5 0
0.566667 -0.483333 0
0.583333 -0.483333 0
0.583333 -0.5 0
0.6 -0.5 0
0.583333 -0.483333 0
0.6 -0.483333 0
0.6 -0.5 0
0.616667 -0.5 0
0.6 -0.483333 0
0.616667 -0.483333 0
0.616667 -0.5 0
0.633333 -0.5 0
0.616667 -0.483333 0
0.633333 -0.483333 0
0.633333 -0.5 0
0.65 -0.5 0
0.633333 -0.483333 0
0.65 -0.483333 0
0.65 -0.5 0
0.666667 -0.5 0
0.65 -0.483333 0
0.666667 -0.483333 0
0.666667 -0.5 0
0.683333 -0.5 0
0.666667 -0.483333 0
0.683333 -0.483333 0
0.683333 -0.5 0
0.7 -0.5 0
0.683333 -0.483333 0
0.7 -0.483333 0
0.7 -0.5 0
0.716667 -0.5 0
0.7 -0.483333 0
0.716667 -0.483333 0
0.716667 -0.5 0
0.733333 -0.5 0
0.716667 -0.483333 0
0.733333 -0.483333 0
0.733333 -0.5 0
0.75 -0.5 0
0.733333 -0.483333 0
0.75 -0.483333 0
0.75 -0.5 0
0.766667 -0.5 0
0.75 -0.483333 0
0.766667 -0.483333 0
0.766667 -0.5 0
0.783333 -0.5 0
0.766667 -0.483333 0
0.783333 -0.483333 0
0.783333 -0.5 0
0.8 -0.5 0
0.783333 -0.483333 0
0.8 -0.483333 0
0.8 -0.5 0
0.816667 -0.5 0
0.8 -0.483333 0
0.816667 -0.483333 0
0.816667 -0.5 0
0.833333 -0.5 0
0.816667 -0.483333 0
0.833333 -0.483333 0
0.833333 -0.5 0
0.85 -0.5 0
0.833333 -0.483333 0
0.85 -0.483333 0
0.85 -0.5 0
0.866667 -0.5 0
0.85 -0.483333 0
0.866667 -0.483333 0
0.866667 -0.5 0
0.883333 -0.5 0
0.866667 -0.483333 0
0.883333 -0.483333 0
0.883333 -0.5 0
0.9 -0.5 0
0.883333 -0.483333 0
0.9 -0.483333 0
0.9 -0.5 0
0.916667 -0.5 0
0.9 -0.483333 0
0.916667 -0.483333 0
0.916667 -0.5 0
0.933333 -0.5 0
0.916667 -0.483333 0
0.933333 -0.483333 0
0.933333 -0.5 0
0.95 -0.5 0
0.933333 -0.483333 0
0.95 -0.483333 0
0.95 -0.5 0
0.966667 -0.5 0
0.95 -0.483333 0
0.966667 -0.483333 0
0.966667 -0.5 0
0.983333 -0.5 0
0.966667 -0.483333 0
0.983333 -0.483333 0
0.983333 -0.5 0
1 -0.5 0
0.983333 -0.483333 0
1 -0.483333 0
1 -0.5 0
1.01667 -0.5 0
1 -0.483333 0
1.01667 -0.483333 0
1.01667 -0.5 0
1.03333 -0.5 0
1.01667 -0.483333 0
1.03333 -0.483333 0
1.03333 -0.5 0
1.05 -0.5 0
1.03333 -0.483333 0
1.05 -0.483333 0
1.05 -0.5 0
1.06667 -0.5 0
1.05 -0.483333 0
1.06667 -0.483333 0
1.06667 -0.5 0
1.08333 -0.5 0
1.06667 -0.483333 0
1.08333 -0.483333 0
1.08333 -0.5 0
1.1 -0.5 0
1.08333 -0.483333 0
1.1 -0.483333 0
1.1 -0.5 0
1.11667 -0.5 0
1.1 -0.483333 0
1.11667 -0.483333 0
1.11667 -0.5 0
1.13333 -0.5 0
1.11667 -0.483333 0
1.13333 -0.483333 0
1.13333 -0.5 0
1.15 -0.5 0
1.13333 -0.483333 0
1.15 -0.483333 0
1.15 -0.5 0
1.16667 -0.5 0
1.15 -0.483333 0
1.16667 -0.483333 0
1.16667 -0.5 0
1.18333 -0.5 0
1.16667 -0.483333 0
1.18333 -0.483333 0
1.18333 -0.5 0
1.2 -0.5 0
1.18333 -0.483333 0
1.2 -0.483333 0
1.2 -0.5 0
1.21667 -0.5 0
1.2 -0.483333 0
1.21667 -0.483333 0
1.21667 -0.5 0
1.23333 -0.5 0
1.21667 -0.483333 0
1.23333 -0.483333 0
1.23333 -0.5 0
1.25 -0.5 0
1.23333 -0.483333 0
1.25 -0.483333 0
1.25 -0.5 0
1.26667 -0.5 0
1.25 -0.483333 0
1.26667 -0.483333 0
1.26667 -0.5 0
1.28333 -0.5 0
1.26667 -0.483333 0
1.28333 -0.483333 0
1.28333 -0.5 0
1.3 -0.5 0
1.28333 -0.483333 0
1.3 -0.483333 0
1.3 -0.5 0
1.31667 -0.5 0
1.3 -0.483333 0
1.31667 -0.483333 0
1.31667 -0.5 0
1.33333 -0.5 0
1.31667 -0.483333 0
1.33333 -0.483333 0
1.33333 -0.5 0
1.35 -0.5 0
1.33333 -0.483333 0
1.35 -0.483333 0
1.35 -0.5 0
1.36667 -0.5 0
1.35 -0.483333 0
1.36667 -0.483333 0
1.36667 -0.5 0
1.38333 -0.5 0
1.36667 -0.483333 0
1.38333 -0.483333 0
1.38333 -0.5 0
1.4 -0.5 0
1.38333 -0.483333 0
1.4 -0.483333 0
1.4 -0.5 0
1.41667 -0.5 0
1.4 -0.483333 0
1.41667 -0.483333 0
1.41667 -0.5 0
1.43333 -0.5 0
1.41667 -0.483333 0
1.43333 -0.483333 0
1.43333 -0.5 0
1.45 -0.5 0
1.43333 -0.483333 0
1.45 -0.483333 0
1.45 -0.5 0
1.46667 -0.5 0
1.45 -0.483333 0
1.46667 -0.483333 0
1.46667 -0.5 0
1.48333 -0.5 0
1.46667 -0.483333 0
1.48333 -0.483333 0
1.48333 -0.5 0
1.5 -0.5 0
1.48333 -0.483333 0
1.5 -0.483333 0
1.5 -0.5 0
1.51667 -0.5 0
1.5 -0.483333 0
1.51667 -0.483333 0
1.51667 -0.5 0
1.53333 -0.5 0
1.51667 -0.483333 0
1.53333 -0.483333 0
1.53333 -0.5 0
1.55 -0.5 0
1.53333 -0.483333 0
1.55 -0.483333 0
1.55 -0.5 0
1.56667 -0.5 0
1.55 -0.483333 0
1.56667 -0.483333 0
1.56667 -0.5 0
1.58333 -0.5 0
1.56667 -0.483333 0
1.58333 -0.483333 0
1.58333 -0.5 0
1.6 -0.5 0
1.58333 -0.483333 0
1.6 -0.483333 0
1.6 -0.5 0
1.61667 -0.5 0
1.6 -0.483333 0
1.61667 -0.483333 0
1.61667 -0.5 0
1.63333 -0.5 0
1.61667 -0.483333 0
1.63333 -0.483333 0
1.63333 -0.5 0
1.65 -0.5 0
1.63333 -0.483333 0
1.65 -0.483333 0
1.65 -0.5 0
1.66667 -0.5 0
1.65 -0.483333 0
1.66667 -0.483333 0
1.66667 -0.5 0
1.68333 -0.5 0
1.66667 -0.483333 0
1.68333 -0.483333 0
1.68333 -0.5 0
1.7 -0.5 0
1.68333 -0.483333 0
1.7 -0.483333 0
1.7 -0.5 0
1.71667 -0.5 0
1.7 -0.483333 0
1.71667 -0.483333 0
1.71667 -0.5 0
1.73333 -0.5 0
1.71667 -0.483333 0
1.73333 -0.483333 0
1.73333 -0.5 0
1.75 -0.5 0
1.73333 -0.483333 0
1.75 -0.483333 0
1.75 -0.5 0
1.76667 -0.5 0
1.75 -0.483333 0
1.76667 -0.483333 0
1.76667 -0.5 0
1.78333 -0.5 0
1.76667 -0.483333 0
1.78333 -0.483333 0
1.78333 -0.5 0
1.8 -0.5 0
1.78333 -0.483333 0
1.8 -0.483333 0
1.8 -0.5 0
1.81667 -0.5 0
1.8 -0.483333 0
1.81667 -0.483333 0
1.81667 -0.5 0
1.83333 -0.5 0
1.81667 -0.483333 0
1.83333 -0.483333 0
1.83333 -0.5 0
1.85 -0.5 0
1.83333 -0.483333 0
1.85 -0.483333 0
1.85 -0.5 0
1.86667 -0.5 0
1.85 -0.483333 0
1.86667 -0.483333 0
1.86667 -0.5 0
1.88333 -0.5 0
1.86667 -0.483333 0
1.88333 -0.483333 0
1.88333 -0.5 0
1.9 -0.5 0
1.88333 -0.483333 0
1.9 -0.483333 0
1.9 -0.5 0
1.91667 -0.5 0
1.9 -0.483333 0
1.91667 -0.483333 0
1.91667 -0.5 0
1.93333 -0.5 0
1.91667 -0.483333 0
1.93333 -0.483333 0
1.93333 -0.5 0
1.95 -0.5 0
1.93333 -0.483333 0
1.95 -0.483333 0
1.95 -0.5 0
1.96667 -0.5 0
1.95 -0.483333 0
1.96667 -0.483333 0
1.96667 -0.5 0
1.98333 -0.5 0
1.96667 -0.483333 0
1.98333 -0.483333 0
1.98333 -0.5 0
2 -0.5 0
1.98333 -0.483333 0
2 -0.483333 0
0 -0.483333 0
0.0166667 -0.483333 0
0 -0.466667 0
0.0166667 -0.466667 0
0.0166667 -0.483333 0
0.0333333 -0.483333 0
0.0166667 -0.466667 0
0.0333333 -0.466667 0
0.0333333 -0.483333 0
0.05 -0.483333 0
0.0333333 -0.466667 0
0.05 -0.466667 0
0.05 -0.483333 0
0.0666667 -0.483333 0
0.05 -0.466667 0
0.0666667 -0.466667 0
0.0666667 -0.483333 0
0.0833333 -0.483333 0
0.0666667 -0.466667 0
0.0833333 -0.466667 0
0.0833333 -0.483333 0
0.1 -0.483333 0
0.0833333 -0.466667 0
0.1 -0.466667 0
0.1 -0.483333 0
0.116667 -0.483333 0
0.1 -0.466667 0
0.116667 -0.466667 0
0.116667 -0.483333 0
0.133333 -0.483333 0
0.116667 -0.466667 0
0.133333 -0.466667 0
0.133333 -0.483333 0
0.15 -0.483333 0
0.133333 -0.466667 0
0.15 -0.466667 0
0.15 -0.483333 0
0.166667 -0.483333 0
0.15 -0.466667 0
0.166667 -0.466667 0
0.166667 -0.483333 0
0.183333 -0.483333 0
0.166667 -0.466667 0
0.183333 -0.466667 0
0.183333 -0.483333 0
0.2 -0.483333 0
0.183333 -0.466667 0
0.2 -0.466667 0
0.2 -0.483333 0
0.216667 -0.483333 0
0.2 -0.466667 0
0.216667 -0.466667 0
0.216667 -0.483333 0
0.233333 -0.483333 0
0.216667 -0.466667 0
0.233333 -0.466667 0
0.233333 -0.483333 0
0.25 -0.483333 0
0.233333 -0.466667 0
0.25 -0.466667 0
0.25 -0.483333 0
0.266667 -0.483333 0
0.25 -0.466667 0
0.266667 -0.466667 0
0.266667 -0.483333 0
0.283333 -0.483333 0
0.266667 -0.466667 0
0.283333 -0.466667 0
0.283333 -0.483333 0
0.3 -0.483333 0
0.283333 -0.466667 0
0.3 -0.466667 0
0.3 -0.483333 0
0.316667 -0.483333 0
0.3 -0.466667 0
0.316667 -0.466667 0
0.316667 -0.483333 0
0.333333 -0.483333 0
0.316667 -0.466667 0
0.333333 -0.466667 0
0.333333 -0.483333 0
0.35 -0.483333 0
0.333333 -0.466667 0
0.35 -0.466667 0
0.35 -0.483333 0
0.366667 -0.483333 0
0.35 -0.466667 0
0.366667 -0.466667 0
0.366667 -0.483333 0
0.383333 -0.483333 0
0.366667 -0.466667 0
0.383333 -0.466667 0
0.383333 -0.483333 0
0.4 -0.483333 0
[...]
POINT_DATA 28800
SCALARS x1_displacement double 1
LOOKUP_TABLE default
0 0.00110103 0 0.000394663 0.00110103 0.00228852 0.000394663 0.00103548 0.00228852 0.00309582 0.00103548 0.00175902 0.00309582 0.0035965 0.00175902 0.00239877 0.0035965 0.00404311 0.00239877 0.00297711 0.00404311 0.00453201 0.00297711 0.00353123 0.00453201 0.00507662 0.00353123 0.00406831 0.00507662 0.00565865 0.00406831 0.0045958 0.00565865 0.00625765 0.0045958 0.00511379 0.00625765 0.00685562 0.00511379 0.00561766 0.00685562 0.00743863 0.00561766 0.0061027 0.00743863 0.00799753 0.0061027 0.0065655 0.00799753 0.00852741 0.0065655 0.00700425 0.00852741 0.00902659 0.00700425 0.00741856 0.00902659 0.00949563 0.00741856 0.00780906 0.00949563 0.00993642 0.00780906 0.00817713 0.00993642 0.0103514 0.00817713 0.00852446 0.0103514 0.0107431 0.00852446 0.00885273 0.0107431 0.0111137 0.00885273 0.00916341 0.0111137 0.0114645 0.00916341 0.00945758 0.0114645 0.0117965 0.00945758 0.00973589 0.0117965 0.0121101 0.00973589 0.00999866 0.0121101 0.0124051 0.00999866 0.0102459 0.0124051 0.0126814 0.0102459 0.0104777 0.0126814 0.0129389 0.0104777 0.0106938 0.0129389 0.0131775 0.0106938 0.0108945 0.0131775 0.0133972 0.0108945 0.0110797 0.0133972 0.0135984 0.0110797 0.0112498 0.0135984 0.0137815 0.0112498 0.0114051 0.0137815 0.013947 0.0114051 0.0115459 0.013947 0.0140953 0.0115459 0.0116728 0.0140953 0.0142272 0.0116728 0.0117861 0.0142272 0.0143432 0.0117861 0.0118864 0.0143432 0.0144441 0.0118864 0.0119744 0.0144441 0.0145307 0.0119744 0.0120506 0.0145307 0.0146042 0.0120506 0.012116 0.0146042 0.014666 0.012116 0.0121717 0.014666 0.0147175 0.0121717 0.0122189 0.0147175 0.0147606 0.0122189 0.0122589 0.0147606 0.014797 0.0122589 0.0122931 0.014797 0.0148288 0.0122931 0.0123231 0.0148288 0.014858 0.0123231 0.0123504 0.014858 0.0148866 0.0123504 0.0123764 0.0148866 0.0149166 0.0123764 0.0124023 0.0149166 0.0149504 0.0124023 0.0124297 0.0149504 0.0149905 0.0124297 0.0124596 0.0149905 0.0150393 0.0124596 0.0124935 0.0150393 0.0150987 0.0124935 0.0125322 0.0150987 0.0151691 0.0125322 0.0125761 0.0151691 0.0152487 0.0125761 0.0126242 0.0152487 0.0153342 0.0126242 0.0126744 0.0153342 0.0154221 0.0126744 0.012725 0.0154221 0.0155095 0.012725 0.0127747 0.0155095 0.015595 0.0127747 0.0128231 0.015595 0.0156776 0.0128231 0.0128699 0.0156776 0.0157571 0.0128699 0.0129149 0.0157571 0.0158333 0.0129149 0.0129581 0.0158333 0.0159062 0.0129581 0.0129995 0.0159062 0.0159757 0.0129995 0.0130389 0.0159757 0.0160418 0.0130389 0.0130764 0.0160418 0.0161045 0.0130764 0.0131121 0.0161045 0.0161637 0.0131121 0.0131458 0.0161637 0.0162196 0.0131458 0.0131776 0.0162196 0.0162721 0.0131776 0.0132075 0.0162721 0.0163212 0.0132075 0.0132355 0.0163212 0.0163668 0.0132355 0.0132616 0.0163668 0.0164091 0.0132616 0.0132857 0.0164091 0.016448 0.0132857 0.013308 0.016448 0.0164835 0.013308 0.0133284 0.0164835 0.0165156 0.0133284 0.0133468 0.0165156 0.0165443 0.0133468 0.0133634 0.0165443 0.0165696 0.0133634 0.013378 0.0165696 0.0165915 0.013378 0.0133907 0.0165915 0.01661 0.0133907 0.0134015 0.01661 0.0166251 0.0134015 0.0134105 0.0166251 0.0166368 0.0134105 0.0134175 0.0166368 0.0166451 0.0134175 0.0134226 0.0166451 0.01665 0.0134226 0.0134258 0.01665 0.0166516 0.0134258 0.013427 0.0166516 0.0166497 0.013427 0.0134264 0.0166497 0.0166444 0.0134264 0.0134239 0.0166444 0.0166358 0.0134239 0.0134194 0.0166358 0.0166237 0.0134194 0.0134131 0.0166237 0.0166082 0.0134131 0.0134048 0.0166082 0.0165894 0.0134048 0.0133947 0.0165894 0.0165671 0.0133947 0.0133826 0.0165671 0.0165415 0.0133826 0.0133686 0.0165415 0.0165125 0.0133686 0.0133528 0.0165125 0.01648 0.0133528 0.013335 0.01648 0.0164442 0.013335 0.0133153 0.0164442 0.016405 0.0133153 0.0132937 0.016405 0.0163623 0.0132937 0.0132701 0.0163623 0.0163163 0.0132701 0.0132447 0.0163163 0.0162669 0.0132447 0.0132174 0.0162669 0.0162141 0.0132174 0.0131882 0.0162141 0.0161579 0.0131882 0.013157 0.0161579 0.0160983 0.013157 0.013124 0.0160983 0.0160353 0.013124 0.013089 0.0160353 0.0159689 0.013089 0.0130521 0.0159689 0.0158991 0.0130521 0.0130134 0.0158991 0.0158259 0.0130134 0.0129727 0.0158259 0.0157492 0.0129727 0.0129301 0.0157492 0.0156692 0.0129301 0.0128856 0.0156692 0.0155856 0.0128856 0.0128393 0.0155856 0.0154985 0.0128393 0.0127911 0.0154985 0.0154081 0.0127911 0.0127411 0.0154081 0.0153153 0.0127411 0.0126896 0.0153153 0.0152232 0.0126896 0.012637 0.0152232 0.0151383 0.012637 0.0125843 0.0151383 0.0150728 0.0125843 0.0125346 0.0150728 0.0150422 0.0125346 0.0124928 0.0150422 0.0150591 0.0124928 0.012462 0.0150591 0.0151212 0.012462 0.0124388 0.0151212 0.0152056 0.0124388 0.0124051 0.0152056 0.0152814 0.0124051 0.0123264 0.0152814 0.0153244 0.0123264 0.0121824 0.0153244 0.015312 0.0121824 0.0119605 0.015312 0.0151193 0.0119605 0.0116942 0.0151193 0.0147692 0.0116942 0.0115676 0.0147692 0.0146129 0.0115676 0.0116515 0 0.000394663 0 0.00012358 0.000394663 0.00103548 0.00012358 0.00042078 0.00103548 0.00175902 0.00042078 0.000896548 0.00175902 0.00239877 0.000896548 0.00146881 0.00239877 0.00297711 0.00146881 0.00203992 0.00297711 0.00353123 0.00203992 0.00257724 0.00353123 0.00406831 0.00257724 0.00307849 0.00406831 0.0045958 0.00307849 0.00355307 0.0045958 0.00511379 0.00355307 0.00400119 0.00511379 0.00561766 0.00400119 0.00442299 0.00561766 0.0061027 0.00442299 0.00481926 0.0061027 0.0065655 0.00481926 0.00519132 0.0065655 0.00700425 0.00519132 0.00554072 0.00700425 0.00741856 0.00554072 0.00586909 0.00741856 0.00780906 0.00586909 0.00617813 0.00780906 0.00817713 0.00617813 0.00646959 0.00817713 0.00852446 0.00646959 0.00674522 0.00852446 0.00885273 0.00674522 0.00700654 0.00885273 0.00916341 0.00700654 0.00725472 0.00916341 0.00945758 0.00725472 0.00749051 0.00945758 0.00973589 0.00749051 0.00771423 0.00973589 0.00999866 0.00771423 0.00792593 0.00999866 0.0102459 0.00792593 0.00812545 0.0102459 0.0104777 0.00812545 0.00831263 0.0104777 0.0106938 0.00831263 0.00848739 0.0106938 0.0108945 0.00848739 0.00864976 0.0108945 0.0110797 0.00864976 0.00879991 0.0110797 0.0112498 0.00879991 0.00893809 0.0112498 0.0114051 0.00893809 0.00906461 0.0114051 0.0115459 0.00906461 0.00917981 0.0115459 0.0116728 0.00917981 0.00928399 0.0116728 0.0117861 0.00928399 0.00937745 0.0117861 0.0118864 0.00937745 0.00946054 0.0118864 0.0119744 0.00946054 0.00953365 0.0119744 0.0120506 0.00953365 0.00959725 0.0120506 0.012116 0.00959725 0.00965198 0.012116 0.0121717 0.00965198 0.00969861 0.0121717 0.0122189 0.00969861 0.00973807 0.0122189 0.0122589 0.00973807 0.00977141 0.0122589 0.0122931 0.00977141 0.00979977 0.0122931 0.0123231 0.00979977 0.0098243 0.0123231 0.0123504 0.0098243 0.00984604 0.0123504 0.0123764 0.00984604 0.00986588 0.0123764 0.0124023 0.00986588 0.00988444 0.0124023 0.0124297 0.00988444 0.00990214 0.0124297 0.0124596 0.00990214 0.00991929 0.0124596 0.0124935 0.00991929 0.00993644 0.0124935 0.0125322 0.00993644 0.00995449 0.0125322 0.0125761 0.00995449 0.00997412 0.0125761 0.0126242 0.00997412 0.00999436 0.0126242 0.0126744 0.00999436 0.0100131 0.0126744 0.012725 0.0100131 0.0100291 0.012725 0.0127747 0.0100291 0.0100427 0.0127747 0.0128231 0.0100427 0.010055 0.0128231 0.0128699 0.010055 0.0100664 0.0128699 0.0129149 0.0100664 0.0100772 0.0129149 0.0129581 0.0100772 0.0100875 0.0129581 0.0129995 0.0100875 0.0100974 0.0129995 0.0130389 0.0100974 0.0101068 0.0130389 0.0130764 0.0101068 0.0101158 0.0130764 0.0131121 0.0101158 0.0101244 0.0131121 0.0131458 0.0101244 0.0101326 0.0131458 0.0131776 0.0101326 0.0101403 0.0131776 0.0132075 0.0101403 0.0101476 0.0132075 0.0132355 0.0101476 0.0101546 0.0132355 0.0132616 0.0101546 0.010161 0.0132616 0.0132857 0.010161 0.0101671 0.0132857 0.013308 0.0101671 0.0101728 0.013308 0.0133284 0.0101728 0.010178 0.0133284 0.0133468 0.010178 0.0101828 0.0133468 0.0133634 0.0101828 0.0101872 0.0133634 0.013378 0.0101872 0.0101912 0.013378 0.0133907 0.0101912 0.0101947 0.0133907 0.0134015 0.0101947 0.0101979 0.0134015 0.0134105 0.0101979 0.0102006 0.0134105 0.0134175 0.0102006 0.0102029 0.0134175 0.0134226 0.0102029 0.0102048 0.0134226 0.0134258 0.0102048 0.0102062 0.0134258 0.013427 0.0102062 0.0102073 0.013427 0.0134264 0.0102073 0.0102079 0.0134264 0.0134239 0.0102079 0.0102081 0.0134239 0.0134194 0.0102081 0.0102079 0.0134194 0.0134131 0.0102079 0.0102072 0.0134131 0.0134048 0.0102072 0.0102062 0.0134048 0.0133947 0.0102062 0.0102047 0.0133947 0.0133826 0.0102047 0.0102028 0.0133826 0.0133686 0.0102028 0.0102005 0.0133686 0.0133528 0.0102005 0.0101978 0.0133528 0.013335 0.0101978 0.0101947 0.013335 0.0133153 0.0101947 0.0101911 0.0133153 0.0132937 0.0101911 0.0101871 0.0132937 0.0132701 0.0101871 0.0101827 0.0132701 0.0132447 0.0101827 0.0101779 0.0132447 0.0132174 0.0101779 0.0101727 0.0132174 0.0131882 0.0101727 0.010167 0.0131882 0.013157 0.010167 0.0101609 0.013157 0.013124 0.0101609 0.0101544 0.013124 0.013089 0.0101544 0.0101475 0.013089 0.0130521 0.0101475 0.0101402 0.0130521 0.0130134 0.0101402 0.0101324 0.0130134 0.0129727 0.0101324 0.0101243 0.0129727 0.0129301 0.0101243 0.0101157 0.0129301 0.0128856 0.0101157 0.0101068 0.0128856 0.0128393 0.0101068 0.0100974 0.0128393 0.0127911 0.0100974 0.0100876 0.0127911 0.0127411 0.0100876 0.0100768 0.0127411 0.0126896 0.0100768 0.0100638 0.0126896 0.012637 0.0100638 0.0100462 0.012637 0.0125843 0.0100462 0.0100191 0.0125843 0.0125346 0.0100191 0.0099777 0.0125346 0.0124928 0.0099777 0.00992424 0.0124928 0.012462 0.00992424 0.00986389 0.012462 0.0124388 0.00986389 0.00979082 0.0124388 0.0124051 0.00979082 0.00969496 0.0124051 0.0123264 0.00969496 0.00953603 0.0123264 0.0121824 0.00953603 0.00927451 0.0121824 0.0119605 0.00927451 0.00900348 0.0119605 0.0116942 0.00900348 0.00888605 0.0116942 0.0115676 0.00888605 0.00891583 0.0115676 0.0116515 0.00891583 0.00909 0 0.00012358 0 5.22177e-05 0.00012358 0.00042078 5.22177e-05 0.000277522 0.00042078 0.000896548 0.000277522 0.000620421 0.000896548 0.00146881 0.000620421 0.000981493 0.00146881 0.00203992 0.000981493 0.00135715 0.00203992 0.00257724 0.00135715 0.00176303 0.00257724 0.00307849 0.00176303 0.00218036 0.00307849 0.00355307 0.00218036 0.00257775 0.00355307 0.00400119 0.00257775 0.00294432 0.00400119 0.00442299 0.00294432 0.00327883 0.00442299 0.00481926 0.00327883 0.00358396 0.00481926 0.00519132 0.00358396 0.00386402 0.00519132 0.00554072 0.00386402 0.00412291 0.00554072 0.00586909 0.00412291 0.00436374 0.00586909 0.00617813 0.00436374 0.00458916 0.00617813 0.00646959 0.00458916 0.00480151 0.00646959 0.00674522 0.00480151 0.00500291 0.00674522 0.00700654 0.00500291 0.00519504 0.00700654 0.00725472 0.00519504 0.005379 0.00725472 0.00749051 0.005379 0.00555526 0.00749051 0.00771423 0.00555526 0.00572375 0.00771423 0.00792593 0.00572375 0.00588406 0.00792593 0.00812545 0.00588406 0.00603568 0.00812545 0.00831263 0.00603568 0.00617815 0.00831263 0.00848739 0.00617815 0.00631126 0.00848739 0.00864976 0.00631126 0.00643498 0.00864976 0.00879991 0.00643498 0.00654952 0.00879991 0.00893809 0.00654952 0.00665516 0.00893809 0.00906461 0.00665516 0.00675223 0.00906461 0.00917981 0.00675223 0.00684099 0.00917981 0.00928399 0.00684099 0.00692163 0.00928399 0.00937745 0.00692163 0.00699427 0.00937745 0.00946054 0.00699427 0.00705899 0.00946054 0.00953365 0.00705899 0.00711593 0.00953365 0.00959725 0.00711593 0.00716527 0.00959725 0.00965198 0.00716527 0.00720737 0.00965198 0.00969861 0.00720737 0.00724272 0.00969861 0.00973807 0.00724272 0.00727202 0.00973807 0.00977141 0.00727202 0.00729611 0.00977141 0.00979977 0.00729611 0.00731593 0.00979977 0.0098243 0.00731593 0.00733241 0.0098243 0.00984604 0.00733241 0.00734634 0.00984604 0.00986588 0.00734634 0.00735822 0.00986588 0.00988444 0.00735822 0.00736818 0.00988444 0.00990214 0.00736818 0.00737587 0.00990214 0.00991929 0.00737587 0.0073806 0.00991929 0.00993644 0.0073806 0.00738181 0.00993644 0.00995449 0.00738181 0.0073799 0.00995449 0.00997412 0.0073799 0.00737596 0.00997412 0.00999436 0.00737596 0.007369 0.00999436 0.0100131 0.007369 0.00735538 0.0100131 0.0100291 0.00735538 0.00733528 0.0100291 0.0100427 0.00733528 0.00731186 0.0100427 0.010055 0.00731186 0.00728776 0.010055 0.0100664 0.00728776 0.00726386 0.0100664 0.0100772 0.00726386 0.00724053 0.0100772 0.0100875 0.00724053 0.00721798 0.0100875 0.0100974 0.00721798 0.00719639 0.0100974 0.0101068 0.00719639 0.00717581 0.0101068 0.0101158 0.00717581 0.00715628 0.0101158 0.0101244 0.00715628 0.00713782 0.0101244 0.0101326 0.00713782 0.00712042 0.0101326 0.0101403 0.00712042 0.0071041 0.0101403 0.0101476 0.0071041 0.00708885 0.0101476 0.0101546 0.00708885 0.00707467 0.0101546 0.010161 0.00707467 0.00706156 0.010161 0.0101671 0.00706156 0.00704951 0.0101671 0.0101728 0.00704951 0.00703855 0.0101728 0.010178 0.00703855 0.00702865 0.010178 0.0101828 0.00702865 0.00701982 0.0101828 0.0101872 0.00701982 0.00701206 0.0101872 0.0101912 0.00701206 0.00700537 0.0101912 0.0101947 0.00700537 0.00699975 0.0101947 0.0101979 0.00699975 0.00699521 0.0101979 0.0102006 0.00699521 0.00699173 0.0102006 0.0102029 0.00699173 0.00698932 0.0102029 0.0102048 0.00698932 0.00698799 0.0102048 0.0102062 0.00698799 0.00698772 0.0102062 0.0102073 0.00698772 0.00698852 0.0102073 0.0102079 0.00698852 0.0069904 0.0102079 0.0102081 0.0069904 0.00699334 0.0102081 0.0102079 0.00699334 0.00699735 0.0102079 0.0102072 0.00699735 0.00700243 0.0102072 0.0102062 0.00700243 0.00700859 0.0102062 0.0102047 0.00700859 0.00701581 0.0102047 0.0102028 0.00701581 0.0070241 0.0102028 0.0102005 0.0070241 0.00703346 0.0102005 0.0101978 0.00703346 0.00704389 0.0101978 0.0101947 0.00704389 0.0070554 0.0101947 0.0101911 0.0070554 0.00706797 0.0101911 0.0101871 0.00706797 0.00708161 0.0101871 0.0101827 0.00708161 0.00709632 0.0101827 0.0101779 0.00709632 0.0071121 0.0101779 0.0101727 0.0071121 0.00712895 0.0101727 0.010167 0.00712895 0.00714687 0.010167 0.0101609 0.00714687 0.00716587 0.0101609 0.0101544 0.00716587 0.00718593 0.0101544 0.0101475 0.00718593 0.00720706 0.0101475 0.0101402 0.00720706 0.00722926 0.0101402 0.0101324 0.00722926 0.00725254 0.0101324 0.0101243 0.00725254 0.00727689 0.0101243 0.0101157 0.00727689 0.00730232 0.0101157 0.0101068 0.00730232 0.00732882 0.0101068 0.0100974 0.00732882 0.00735636 0.0100974 0.0100876 0.00735636 0.00738472 0.0100876 0.0100768 0.00738472 0.00741329 0.0100768 0.0100638 0.00741329 0.00744048 0.0100638 0.0100462 0.00744048 0.00746292 0.0100462 0.0100191 0.00746292 0.00747409 0.0100191 0.0099777 0.00747409 0.00746147 0.0099777 0.00992424 0.00746147 0.00741616 0.00992424 0.00986389 0.00741616 0.00735911 0.00986389 0.00979082 0.00735911 0.0072789 0.00979082 0.00969496 0.0072789 0.00711806 0.00969496 0.00953603 0.00711806 0.0068977 0.00953603 0.00927451 0.0068977 0.00678493 0.00927451 0.00900348 0.00678493 0.00687024 0.00900348 0.00888605 0.00687024 0.00697392 0.00888605 0.00891583 0.00697392 0.00703929 0.00891583 0.00909 0.00703929 0.00723861 0 5.22177e-05 0 -5.63119e-06 5.22177e-05 0.000277522 -5.63119e-06 0.000102082 0.000277522 0.000620421 0.000102082 0.000320522 0.000620421 0.000981493 0.000320522 0.000578958 0.000981493 0.00135715 0.000578958 0.000827747 0.00135715 0.00176303 0.000827747 0.00110396 0.00176303 0.00218036 0.00110396 0.00140432 0.00218036 0.00257775 0.00140432 0.00169299 0.00257775 0.00294432 0.00169299 0.00195566 0.00294432 0.00327883 0.00195566 0.00218662 0.00327883 0.00358396 0.00218662 0.00239037 0.00358396 0.00386402 0.00239037 0.00257271 0.00386402 0.00412291 0.00257271 0.00273795 0.00412291 0.00436374 0.00273795 0.00288923 0.00436374 0.00458916 0.00288923 0.00302927 0.00458916 0.00480151 0.00302927 0.0031608 0.00480151 0.00500291 0.0031608 0.00328641 0.00500291 0.00519504 0.00328641 0.00340809 0.00519504 0.005379 0.00340809 0.00352696 0.005379 0.00555526 0.00352696 0.00364317 0.00555526 0.00572375 0.00364317 0.00375616 0.00572375 0.00588406 0.00375616 0.00386495 0.00588406 0.00603568 0.00386495 0.00396854 0.00603568 0.00617815 0.00396854 0.00406613 0.00617815 0.00631126 0.00406613 0.00415729 0.00631126 0.00643498 0.00415729 0.00424198 0.00643498 0.00654952 0.00424198 0.00432045 0.00654952 0.00665516 0.00432045 0.00439309 0.00665516 0.00675223 0.00439309 0.00446023 0.00675223 0.00684099 0.00446023 0.00452209 0.00684099 0.00692163 0.00452209 0.0045787 0.00692163 0.00699427 0.0045787 0.00462996 0.00699427 0.00705899 0.00462996 0.00467566 0.00705899 0.00711593 0.00467566 0.0047156 0.00711593 0.00716527 0.0047156 0.00474967 0.00716527 0.00720737 0.00474967 0.00477788 0.00720737 0.00724272 0.00477788 0.00480049 0.00724272 0.00727202 0.00480049 0.00481796 0.00727202 0.00729611 0.00481796 0.004831 0.00729611 0.00731593 0.004831 0.00484047 0.00731593 0.00733241 0.00484047 0.00484727 0.00733241 0.00734634 0.00484727 0.00485213 0.00734634 0.00735822 0.00485213 0.00485549 0.00735822 0.00736818 0.00485549 0.00485729 0.00736818 0.00737587 0.00485729 0.00485687 0.00737587 0.0073806 0.00485687 0.00485285 0.0073806 0.00738181 0.00485285 0.004843 0.00738181 0.0073799 0.004843 0.00482496 0.0073799 0.00737596 0.00482496 0.0047987 0.00737596 0.007369 0.0047987 0.00475886 0.007369 0.00735538 0.00475886 0.00470446 0.00735538 0.00733528 0.00470446 0.0046422 0.00733528 0.00731186 0.0046422 0.0045799 0.00731186 0.00728776 0.0045799 0.0045188 0.00728776 0.00726386 0.0045188 0.00445918 0.00726386 0.00724053 0.00445918 0.00440137 0.00724053 0.00721798 0.00440137 0.00434583 0.00721798 0.00719639 0.00434583 0.00429272 0.00719639 0.00717581 0.00429272 0.00424212 0.00717581 0.00715628 0.00424212 0.00419406 0.00715628 0.00713782 0.00419406 0.00414855 0.00713782 0.00712042 0.00414855 0.0041056 0.00712042 0.0071041 0.0041056 0.00406521 0.0071041 0.00708885 0.00406521 0.00402738 0.00708885 0.00707467 0.00402738 0.00399211 0.00707467 0.00706156 0.00399211 0.0039594 0.00706156 0.00704951 0.0039594 0.00392926 0.00704951 0.00703855 0.00392926 0.00390167 0.00703855 0.00702865 0.00390167 0.00387664 0.00702865 0.00701982 0.00387664 0.00385417 0.00701982 0.00701206 0.00385417 0.00383426 0.00701206 0.00700537 0.00383426 0.00381691 0.00700537 0.00699975 0.00381691 0.00380212 0.00699975 0.00699521 0.00380212 0.00378989 0.00699521 0.00699173 0.00378989 0.00378022 0.00699173 0.00698932 0.00378022 0.00377311 0.00698932 0.00698799 0.00377311 0.00376855 0.00698799 0.00698772 0.00376855 0.00376656 0.00698772 0.00698852 0.00376656 0.00376712 0.00698852 0.0069904 0.00376712 0.00377024 0.0069904 0.00699334 0.00377024 0.00377592 0.00699334 0.00699735 0.00377592 0.00378416 0.00699735 0.00700243 0.00378416 0.00379496 0.00700243 0.00700859 0.00379496 0.00380831 0.00700859 0.00701581 0.00380831 0.00382423 0.00701581 0.0070241 0.00382423 0.0038427 0.0070241 0.00703346 0.0038427 0.00386373 0.00703346 0.00704389 0.00386373 0.00388732 0.00704389 0.0070554 0.00388732 0.00391347 0.0070554 0.00706797 0.00391347 0.00394217 0.00706797 0.00708161 0.00394217 0.00397344 0.00708161 0.00709632 0.00397344 0.00400726 0.00709632 0.0071121 0.00400726 0.00404364 0.0071121 0.00712895 0.00404364 0.00408258 0.00712895 0.00714687 0.00408258 0.00412408 0.00714687 0.00716587 0.00412408 0.00416814 0.00716587 0.00718593 0.00416814 0.00421476 0.00718593 0.00720706 0.00421476 0.00426394 0.00720706 0.00722926 0.00426394 0.00431567 0.00722926 0.00725254 0.00431567 0.00436997 0.00725254 0.00727689 0.00436997 0.00442682 0.00727689 0.00730232 0.00442682 0.00448621 0.00730232 0.00732882 0.00448621 0.00454812 0.00732882 0.00735636 0.00454812 0.00461249 0.00735636 0.00738472 0.00461249 0.00467918 0.00738472 0.00741329 0.00467918 0.00474789 0.00741329 0.00744048 0.00474789 0.00481803 0.00744048 0.00746292 0.00481803 0.00488828 0.00746292 0.00747409 0.00488828 0.00495715 0.00747409 0.00746147 0.00495715 0.00501968 0.00746147 0.00741616 0.00501968 0.00505442 0.00741616 0.00735911 0.00505442 0.0050441 0.00735911 0.0072789 0.0050441 0.00502713 0.0072789 0.00711806 0.00502713 0.00504138 0.00711806 0.0068977 0.00504138 0.00518882 0.0068977 0.00678493 0.00518882 0.00544908 0.00678493 0.00687024 0.00544908 0.00562892 0.006870