# vtk DataFile Version 3.0
#This file was generated by the deal.II library on 2021/2/12 at 0:24:10
ASCII
DATASET UNSTRUCTURED_GRID

POINTS 28800 double
0 -0.5 0
0.0166667 -0.5 0
0 -0.483333 0
0.0166667 -0.483333 0
0.0166667 -0.5 0
0.0333333 -0.5 0
0.0166667 -0.483333 0
0.0333333 -0.483333 0
0.0333333 -0.5 0
0.05 -0.5 0
0.0333333 -0.483333 0
0.05 -0.483333 0
0.05 -0.5 0
0.0666667 -0.5 0
0.05 -0.483333 0
0.0666667 -0.483333 0
0.0666667 -0.5 0
0.0833333 -0.5 0
0.0666667 -0.483333 0
0.0833333 -0.483333 0
0.0833333 -0.5 0
0.1 -0.5 0
0.0833333 -0.483333 0
0.1 -0.483333 0
0.1 -0.5 0
0.116667 -0.5 0
0.1 -0.483333 0
0.116667 -0.483333 0
0.116667 -0.5 0
0.133333 -0.5 0
0.116667 -0.483333 0
0.133333 -0.483333 0
0.133333 -0.5 0
0.15 -0.5 0
0.133333 -0.483333 0
0.15 -0.483333 0
0.15 -0.5 0
0.166667 -0.5 0
0.15 -0.483333 0
0.166667 -0.483333 0
0.166667 -0.5 0
0.183333 -0.5 0
0.166667 -0.483333 0
0.183333 -0.483333 0
0.183333 -0.5 0
0.2 -0.5 0
0.183333 -0.483333 0
0.2 -0.483333 0
0.2 -0.5 0
0.216667 -0.5 0
0.2 -0.483333 0
0.216667 -0.483333 0
0.216667 -0.5 0
0.233333 -0.5 0
0.216667 -0.483333 0
0.233333 -0.483333 0
0.233333 -0.5 0
0.25 -0.5 0
0.233333 -0.483333 0
0.25 -0.483333 0
0.25 -0.5 0
0.266667 -0.5 0
0.25 -0.483333 0
0.266667 -0.483333 0
0.266667 -0.5 0
0.283333 -0.5 0
0.266667 -0.483333 0
0.283333 -0.483333 0
0.283333 -0.5 0
0.3 -0.5 0
0.283333 -0.483333 0
0.3 -0.483333 0
0.3 -0.5 0
0.316667 -0.5 0
0.3 -0.483333 0
0.316667 -0.483333 0
0.316667 -0.5 0
0.333333 -0.5 0
0.316667 -0.483333 0
0.333333 -0.483333 0
0.333333 -0.5 0
0.35 -0.5 0
0.333333 -0.483333 0
0.35 -0.483333 0
0.35 -0.5 0
0.366667 -0.5 0
0.35 -0.483333 0
0.366667 -0.483333 0
0.366667 -0.5 0
0.383333 -0.5 0
0.366667 -0.483333 0
0.383333 -0.483333 0
0.383333 -0.5 0
0.4 -0.5 0
0.383333 -0.483333 0
0.4 -0.483333 0
0.4 -0.5 0
0.416667 -0.5 0
0.4 -0.483333 0
0.416667 -0.483333 0
0.416667 -0.5 0
0.433333 -0.5 0
0.416667 -0.483333 0
0.433333 -0.483333 0
0.433333 -0.5 0
0.45 -0.5 0
0.433333 -0.483333 0
0.45 -0.483333 0
0.45 -0.5 0
0.466667 -0.5 0
0.45 -0.483333 0
0.466667 -0.483333 0
0.466667 -0.5 0
0.483333 -0.5 0
0.466667 -0.483333 0
0.483333 -0.483333 0
0.483333 -0.5 0
0.5 -0.5 0
0.483333 -0.483333 0
0.5 -0.483333 0
0.5 -0.5 0
0.516667 -0.5 0
0.5 -0.483333 0
0.516667 -0.483333 0
0.516667 -0.5 0
0.533333 -0.5 0
0.516667 -0.483333 0
0.533333 -0.483333 0
0.533333 -0.5 0
0.55 -0.5 0
0.533333 -0.483333 0
0.55 -0.483333 0
0.55 -0.5 0
0.566667 -0.5 0
0.55 -0.483333 0
0.566667 -0.483333 0
0.566667 -0.5 0
0.583333 -0.5 0
0.566667 -0.483333 0
0.583333 -0.483333 0
0.583333 -0.5 0
0.6 -0.5 0
0.583333 -0.483333 0
0.6 -0.483333 0
0.6 -0.5 0
0.616667 -0.5 0
0.6 -0.483333 0
0.616667 -0.483333 0
0.616667 -0.5 0
0.633333 -0.5 0
0.616667 -0.483333 0
0.633333 -0.483333 0
0.633333 -0.5 0
0.65 -0.5 0
0.633333 -0.483333 0
0.65 -0.483333 0
0.65 -0.5 0
0.666667 -0.5 0
0.65 -0.483333 0
0.666667 -0.483333 0
0.666667 -0.5 0
0.683333 -0.5 0
0.666667 -0.483333 0
0.683333 -0.483333 0
0.683333 -0.5 0
0.7 -0.5 0
0.683333 -0.483333 0
0.7 -0.483333 0
0.7 -0.5 0
0.716667 -0.5 0
0.7 -0.483333 0
0.716667 -0.483333 0
0.716667 -0.5 0
0.733333 -0.5 0
0.716667 -0.483333 0
0.733333 -0.483333 0
0.733333 -0.5 0
0.75 -0.5 0
0.733333 -0.483333 0
0.75 -0.483333 0
0.75 -0.5 0
0.766667 -0.5 0
0.75 -0.483333 0
0.766667 -0.483333 0
0.766667 -0.5 0
0.783333 -0.5 0
0.766667 -0.483333 0
0.783333 -0.483333 0
0.783333 -0.5 0
0.8 -0.5 0
0.783333 -0.483333 0
0.8 -0.483333 0
0.8 -0.5 0
0.816667 -0.5 0
0.8 -0.483333 0
0.816667 -0.483333 0
0.816667 -0.5 0
0.833333 -0.5 0
0.816667 -0.483333 0
0.833333 -0.483333 0
0.833333 -0.5 0
0.85 -0.5 0
0.833333 -0.483333 0
0.85 -0.483333 0
0.85 -0.5 0
0.866667 -0.5 0
0.85 -0.483333 0
0.866667 -0.483333 0
0.866667 -0.5 0
0.883333 -0.5 0
0.866667 -0.483333 0
0.883333 -0.483333 0
0.883333 -0.5 0
0.9 -0.5 0
0.883333 -0.483333 0
0.9 -0.483333 0
0.9 -0.5 0
0.916667 -0.5 0
0.9 -0.483333 0
0.916667 -0.483333 0
0.916667 -0.5 0
0.933333 -0.5 0
0.916667 -0.483333 0
0.933333 -0.483333 0
0.933333 -0.5 0
0.95 -0.5 0
0.933333 -0.483333 0
0.95 -0.483333 0
0.95 -0.5 0
0.966667 -0.5 0
0.95 -0.483333 0
0.966667 -0.483333 0
0.966667 -0.5 0
0.983333 -0.5 0
0.966667 -0.483333 0
0.983333 -0.483333 0
0.983333 -0.5 0
1 -0.5 0
0.983333 -0.483333 0
1 -0.483333 0
1 -0.5 0
1.01667 -0.5 0
1 -0.483333 0
1.01667 -0.483333 0
1.01667 -0.5 0
1.03333 -0.5 0
1.01667 -0.483333 0
1.03333 -0.483333 0
1.03333 -0.5 0
1.05 -0.5 0
1.03333 -0.483333 0
1.05 -0.483333 0
1.05 -0.5 0
1.06667 -0.5 0
1.05 -0.483333 0
1.06667 -0.483333 0
1.06667 -0.5 0
1.08333 -0.5 0
1.06667 -0.483333 0
1.08333 -0.483333 0
1.08333 -0.5 0
1.1 -0.5 0
1.08333 -0.483333 0
1.1 -0.483333 0
1.1 -0.5 0
1.11667 -0.5 0
1.1 -0.483333 0
1.11667 -0.483333 0
1.11667 -0.5 0
1.13333 -0.5 0
1.11667 -0.483333 0
1.13333 -0.483333 0
1.13333 -0.5 0
1.15 -0.5 0
1.13333 -0.483333 0
1.15 -0.483333 0
1.15 -0.5 0
1.16667 -0.5 0
1.15 -0.483333 0
1.16667 -0.483333 0
1.16667 -0.5 0
1.18333 -0.5 0
1.16667 -0.483333 0
1.18333 -0.483333 0
1.18333 -0.5 0
1.2 -0.5 0
1.18333 -0.483333 0
1.2 -0.483333 0
1.2 -0.5 0
1.21667 -0.5 0
1.2 -0.483333 0
1.21667 -0.483333 0
1.21667 -0.5 0
1.23333 -0.5 0
1.21667 -0.483333 0
1.23333 -0.483333 0
1.23333 -0.5 0
1.25 -0.5 0
1.23333 -0.483333 0
1.25 -0.483333 0
1.25 -0.5 0
1.26667 -0.5 0
1.25 -0.483333 0
1.26667 -0.483333 0
1.26667 -0.5 0
1.28333 -0.5 0
1.26667 -0.483333 0
1.28333 -0.483333 0
1.28333 -0.5 0
1.3 -0.5 0
1.28333 -0.483333 0
1.3 -0.483333 0
1.3 -0.5 0
1.31667 -0.5 0
1.3 -0.483333 0
1.31667 -0.483333 0
1.31667 -0.5 0
1.33333 -0.5 0
1.31667 -0.483333 0
1.33333 -0.483333 0
1.33333 -0.5 0
1.35 -0.5 0
1.33333 -0.483333 0
1.35 -0.483333 0
1.35 -0.5 0
1.36667 -0.5 0
1.35 -0.483333 0
1.36667 -0.483333 0
1.36667 -0.5 0
1.38333 -0.5 0
1.36667 -0.483333 0
1.38333 -0.483333 0
1.38333 -0.5 0
1.4 -0.5 0
1.38333 -0.483333 0
1.4 -0.483333 0
1.4 -0.5 0
1.41667 -0.5 0
1.4 -0.483333 0
1.41667 -0.483333 0
1.41667 -0.5 0
1.43333 -0.5 0
1.41667 -0.483333 0
1.43333 -0.483333 0
1.43333 -0.5 0
1.45 -0.5 0
1.43333 -0.483333 0
1.45 -0.483333 0
1.45 -0.5 0
1.46667 -0.5 0
1.45 -0.483333 0
1.46667 -0.483333 0
1.46667 -0.5 0
1.48333 -0.5 0
1.46667 -0.483333 0
1.48333 -0.483333 0
1.48333 -0.5 0
1.5 -0.5 0
1.48333 -0.483333 0
1.5 -0.483333 0
1.5 -0.5 0
1.51667 -0.5 0
1.5 -0.483333 0
1.51667 -0.483333 0
1.51667 -0.5 0
1.53333 -0.5 0
1.51667 -0.483333 0
1.53333 -0.483333 0
1.53333 -0.5 0
1.55 -0.5 0
1.53333 -0.483333 0
1.55 -0.483333 0
1.55 -0.5 0
1.56667 -0.5 0
1.55 -0.483333 0
1.56667 -0.483333 0
1.56667 -0.5 0
1.58333 -0.5 0
1.56667 -0.483333 0
1.58333 -0.483333 0
1.58333 -0.5 0
1.6 -0.5 0
1.58333 -0.483333 0
1.6 -0.483333 0
1.6 -0.5 0
1.61667 -0.5 0
1.6 -0.483333 0
1.61667 -0.483333 0
1.61667 -0.5 0
1.63333 -0.5 0
1.61667 -0.483333 0
1.63333 -0.483333 0
1.63333 -0.5 0
1.65 -0.5 0
1.63333 -0.483333 0
1.65 -0.483333 0
1.65 -0.5 0
1.66667 -0.5 0
1.65 -0.483333 0
1.66667 -0.483333 0
1.66667 -0.5 0
1.68333 -0.5 0
1.66667 -0.483333 0
1.68333 -0.483333 0
1.68333 -0.5 0
1.7 -0.5 0
1.68333 -0.483333 0
1.7 -0.483333 0
1.7 -0.5 0
1.71667 -0.5 0
1.7 -0.483333 0
1.71667 -0.483333 0
1.71667 -0.5 0
1.73333 -0.5 0
1.71667 -0.483333 0
1.73333 -0.483333 0
1.73333 -0.5 0
1.75 -0.5 0
1.73333 -0.483333 0
1.75 -0.483333 0
1.75 -0.5 0
1.76667 -0.5 0
1.75 -0.483333 0
1.76667 -0.483333 0
1.76667 -0.5 0
1.78333 -0.5 0
1.76667 -0.483333 0
1.78333 -0.483333 0
1.78333 -0.5 0
1.8 -0.5 0
1.78333 -0.483333 0
1.8 -0.483333 0
1.8 -0.5 0
1.81667 -0.5 0
1.8 -0.483333 0
1.81667 -0.483333 0
1.81667 -0.5 0
1.83333 -0.5 0
1.81667 -0.483333 0
1.83333 -0.483333 0
1.83333 -0.5 0
1.85 -0.5 0
1.83333 -0.483333 0
1.85 -0.483333 0
1.85 -0.5 0
1.86667 -0.5 0
1.85 -0.483333 0
1.86667 -0.483333 0
1.86667 -0.5 0
1.88333 -0.5 0
1.86667 -0.483333 0
1.88333 -0.483333 0
1.88333 -0.5 0
1.9 -0.5 0
1.88333 -0.483333 0
1.9 -0.483333 0
1.9 -0.5 0
1.91667 -0.5 0
1.9 -0.483333 0
1.91667 -0.483333 0
1.91667 -0.5 0
1.93333 -0.5 0
1.91667 -0.483333 0
1.93333 -0.483333 0
1.93333 -0.5 0
1.95 -0.5 0
1.93333 -0.483333 0
1.95 -0.483333 0
1.95 -0.5 0
1.96667 -0.5 0
1.95 -0.483333 0
1.96667 -0.483333 0
1.96667 -0.5 0
1.98333 -0.5 0
1.96667 -0.483333 0
1.98333 -0.483333 0
1.98333 -0.5 0
2 -0.5 0
1.98333 -0.483333 0
2 -0.483333 0
0 -0.483333 0
0.0166667 -0.483333 0
0 -0.466667 0
0.0166667 -0.466667 0
0.0166667 -0.483333 0
0.0333333 -0.483333 0
0.0166667 -0.466667 0
0.0333333 -0.466667 0
0.0333333 -0.483333 0
0.05 -0.483333 0
0.0333333 -0.466667 0
0.05 -0.466667 0
0.05 -0.483333 0
0.0666667 -0.483333 0
0.05 -0.466667 0
0.0666667 -0.466667 0
0.0666667 -0.483333 0
0.0833333 -0.483333 0
0.0666667 -0.466667 0
0.0833333 -0.466667 0
0.0833333 -0.483333 0
0.1 -0.483333 0
0.0833333 -0.466667 0
0.1 -0.466667 0
0.1 -0.483333 0
0.116667 -0.483333 0
0.1 -0.466667 0
0.116667 -0.466667 0
0.116667 -0.483333 0
0.133333 -0.483333 0
0.116667 -0.466667 0
0.133333 -0.466667 0
0.133333 -0.483333 0
0.15 -0.483333 0
0.133333 -0.466667 0
0.15 -0.466667 0
0.15 -0.483333 0
0.166667 -0.483333 0
0.15 -0.466667 0
0.166667 -0.466667 0
0.166667 -0.483333 0
0.183333 -0.483333 0
0.166667 -0.466667 0
0.183333 -0.466667 0
0.183333 -0.483333 0
0.2 -0.483333 0
0.183333 -0.466667 0
0.2 -0.466667 0
0.2 -0.483333 0
0.216667 -0.483333 0
0.2 -0.466667 0
0.216667 -0.466667 0
0.216667 -0.483333 0
0.233333 -0.483333 0
0.216667 -0.466667 0
0.233333 -0.466667 0
0.233333 -0.483333 0
0.25 -0.483333 0
0.233333 -0.466667 0
0.25 -0.466667 0
0.25 -0.483333 0
0.266667 -0.483333 0
0.25 -0.466667 0
0.266667 -0.466667 0
0.266667 -0.483333 0
0.283333 -0.483333 0
0.266667 -0.466667 0
0.283333 -0.466667 0
0.283333 -0.483333 0
0.3 -0.483333 0
0.283333 -0.466667 0
0.3 -0.466667 0
0.3 -0.483333 0
0.316667 -0.483333 0
0.3 -0.466667 0
0.316667 -0.466667 0
0.316667 -0.483333 0
0.333333 -0.483333 0
0.316667 -0.466667 0
0.333333 -0.466667 0
0.333333 -0.483333 0
0.35 -0.483333 0
0.333333 -0.466667 0
0.35 -0.466667 0
0.35 -0.483333 0
0.366667 -0.483333 0
0.35 -0.466667 0
0.366667 -0.466667 0
0.366667 -0.483333 0
0.383333 -0.483333 0
0.366667 -0.466667 0
0.383333 -0.466667 0
0.383333 -0.483333 0
0.4 -0.483333 0
[...]
POINT_DATA 28800
SCALARS x1_displacement double 1
LOOKUP_TABLE default
0 -0.00183882 0 -0.00101469 -0.00183882 -0.00321671 -0.00101469 -0.00267615 -0.00321671 -0.00458652 -0.00267615 -0.00433477 -0.00458652 -0.00607614 -0.00433477 -0.0059806 -0.00607614 -0.00750057 -0.0059806 -0.00756196 -0.00750057 -0.00819964 -0.00756196 -0.00892472 -0.00819964 -0.00819544 -0.00892472 -0.0098706 -0.00819544 -0.00810006 -0.0098706 -0.00995382 -0.00810006 -0.0079947 -0.00995382 -0.00986784 -0.0079947 -0.00788807 -0.00986784 -0.00977208 -0.00788807 -0.00778265 -0.00977208 -0.00966948 -0.00778265 -0.00768191 -0.00966948 -0.00956681 -0.00768191 -0.00758897 -0.00956681 -0.00946758 -0.00758897 -0.00750454 -0.00946758 -0.00937276 -0.00750454 -0.0074262 -0.00937276 -0.00928109 -0.0074262 -0.00734898 -0.00928109 -0.0091895 -0.00734898 -0.00726669 -0.0091895 -0.0090941 -0.00726669 -0.00717346 -0.0090941 -0.00899115 -0.00717346 -0.00706474 -0.00899115 -0.0088778 -0.00706474 -0.00693792 -0.0088778 -0.00875234 -0.00693792 -0.00679223 -0.00875234 -0.00861426 -0.00679223 -0.00662844 -0.00861426 -0.008464 -0.00662844 -0.00644846 -0.008464 -0.00830276 -0.00644846 -0.00625484 -0.00830276 -0.00813218 -0.00625484 -0.00605045 -0.00813218 -0.00795418 -0.00605045 -0.00583816 -0.00795418 -0.00777069 -0.00583816 -0.00562065 -0.00777069 -0.00758358 -0.00562065 -0.0054003 -0.00758358 -0.00739454 -0.0054003 -0.00517911 -0.00739454 -0.00720501 -0.00517911 -0.0049587 -0.00720501 -0.00701621 -0.0049587 -0.00474036 -0.00701621 -0.0068291 -0.00474036 -0.00452502 -0.0068291 -0.00664442 -0.00452502 -0.00431336 -0.00664442 -0.00646272 -0.00431336 -0.00410588 -0.00646272 -0.00628441 -0.00410588 -0.00390287 -0.00628441 -0.00610978 -0.00390287 -0.00370455 -0.00610978 -0.005939 -0.00370455 -0.00351104 -0.005939 -0.00577222 -0.00351104 -0.00332241 -0.00577222 -0.00560951 -0.00332241 -0.00313868 -0.00560951 -0.00545092 -0.00313868 -0.00295984 -0.00545092 -0.00529645 -0.00295984 -0.00278587 -0.00529645 -0.0051461 -0.00278587 -0.0026167 -0.0051461 -0.00499983 -0.0026167 -0.00245225 -0.00499983 -0.00485758 -0.00245225 -0.00229244 -0.00485758 -0.0047193 -0.00229244 -0.00213715 -0.0047193 -0.00458491 -0.00213715 -0.0019863 -0.00458491 -0.00445434 -0.0019863 -0.00183977 -0.00445434 -0.00432751 -0.00183977 -0.0016975 -0.00432751 -0.00420436 -0.0016975 -0.00155939 -0.00420436 -0.00408483 -0.00155939 -0.0014254 -0.00408483 -0.00396887 -0.0014254 -0.00129548 -0.00396887 -0.00385644 -0.00129548 -0.00116957 -0.00385644 -0.00374751 -0.00116957 -0.00104764 -0.00374751 -0.00364203 -0.00104764 -0.000929661 -0.00364203 -0.00353998 -0.000929661 -0.00081558 -0.00353998 -0.00344132 -0.00081558 -0.000705358 -0.00344132 -0.003346 -0.000705358 -0.000598947 -0.003346 -0.00325399 -0.000598947 -0.000496299 -0.00325399 -0.00316524 -0.000496299 -0.000397363 -0.00316524 -0.00307971 -0.000397363 -0.000302083 -0.00307971 -0.00299733 -0.000302083 -0.0002104 -0.00299733 -0.00291805 -0.0002104 -0.000122245 -0.00291805 -0.0028418 -0.000122245 -3.75372e-05 -0.0028418 -0.00276849 -3.75372e-05 4.38278e-05 -0.00276849 -0.00269804 4.38278e-05 0.000121983 -0.00269804 -0.00263031 0.000121983 0.000197099 -0.00263031 -0.00256513 0.000197099 0.000269398 -0.00256513 -0.00250231 0.000269398 0.000339164 -0.00250231 -0.00244159 0.000339164 0.000406758 -0.00244159 -0.00238266 0.000406758 0.00047263 -0.00238266 -0.00232512 0.00047263 0.00053734 -0.00232512 -0.0022685 0.00053734 0.000601578 -0.0022685 -0.00221224 0.000601578 0.000666178 -0.00221224 -0.00215564 0.000666178 0.000732147 -0.00215564 -0.0020979 0.000732147 0.000800682 -0.0020979 -0.00203808 0.000800682 0.000873191 -0.00203808 -0.00197509 0.000873191 0.000951309 -0.00197509 -0.00190771 0.000951309 0.0010369 -0.00190771 -0.00183455 0.0010369 0.00113205 -0.00183455 -0.00175414 0.00113205 0.00123903 -0.00175414 -0.00166487 0.00123903 0.00136019 -0.00166487 -0.00156516 0.00136019 0.00149787 -0.00156516 -0.00145348 0.00149787 0.00165413 -0.00145348 -0.00132851 0.00165413 0.00183048 -0.00132851 -0.00118938 0.00183048 0.00202756 -0.00118938 -0.00103581 0.00202756 0.00224477 -0.00103581 -0.000868378 0.00224477 0.00248005 -0.000868378 -0.00068867 0.00248005 0.00272988 -0.00068867 -0.000499264 0.00272988 0.0029895 -0.000499264 -0.000303573 0.0029895 0.00325347 -0.000303573 -0.000105484 0.00325347 0.00351622 -0.000105484 9.10719e-05 0.00351622 0.0037727 9.10719e-05 0.000282521 0.0037727 0.00401871 0.000282521 0.000465906 0.00401871 0.00425114 0.000465906 0.000638975 0.00425114 0.00446785 0.000638975 0.000800144 0.00446785 0.00466751 0.000800144 0.000948373 0.00466751 0.00484937 0.000948373 0.00108301 0.00484937 0.00501306 0.00108301 0.00120368 0.00501306 0.00515834 0.00120368 0.00131012 0.00515834 0.005285 0.00131012 0.00140212 0.005285 0.00539273 0.00140212 0.00147947 0.00539273 0.00548104 0.00147947 0.00154187 0.00548104 0.00554919 0.00154187 0.00158895 0.00554919 0.00559627 0.00158895 0.0016203 0.00559627 0.00562123 0.0016203 0.00163552 0.00562123 0.00562313 0.00163552 0.00163441 0.00562313 0.00560142 0.00163441 0.00161721 0.00560142 0.00555623 0.00161721 0.00158489 0.00555623 0.00548878 0.00158489 0.00153949 0.00548878 0.00540149 0.00153949 0.00148455 0.00540149 0.00529794 0.00148455 0.00142566 0.00529794 0.00518222 0.00142566 0.00137127 0.00518222 0.00505768 0.00137127 0.00133448 0.00505768 0.00492679 0.00133448 0.00133733 0.00492679 0.00479327 0.00133733 0.00141634 0.00479327 0.00474963 0.00141634 0.00157879 0.00474963 0.0049316 0.00157879 0.00128639 0.0049316 0.0037845 0.00128639 -0.000150681 0.0037845 0.00227639 -0.000150681 -0.00179211 0.00227639 0.000648008 -0.00179211 -0.00348124 0 -0.00101469 0 -0.000948328 -0.00101469 -0.00267615 -0.000948328 -0.00242271 -0.00267615 -0.00433477 -0.00242271 -0.00413053 -0.00433477 -0.0059806 -0.00413053 -0.00583637 -0.0059806 -0.00756196 -0.00583637 -0.0075031 -0.00756196 -0.00892472 -0.0075031 -0.00912542 -0.00892472 -0.0098706 -0.00912542 -0.0106486 -0.0098706 -0.00995382 -0.0106486 -0.011727 -0.00995382 -0.00986784 -0.011727 -0.0117862 -0.00986784 -0.00977208 -0.0117862 -0.0116677 -0.00977208 -0.00966948 -0.0116677 -0.0115559 -0.00966948 -0.00956681 -0.0115559 -0.0114447 -0.00956681 -0.00946758 -0.0114447 -0.011337 -0.00946758 -0.00937276 -0.011337 -0.0112347 -0.00937276 -0.00928109 -0.0112347 -0.0111364 -0.00928109 -0.0091895 -0.0111364 -0.0110393 -0.0091895 -0.0090941 -0.0110393 -0.0109394 -0.0090941 -0.00899115 -0.0109394 -0.0108336 -0.00899115 -0.0088778 -0.0108336 -0.0107199 -0.0088778 -0.00875234 -0.0107199 -0.0105974 -0.00875234 -0.00861426 -0.0105974 -0.010466 -0.00861426 -0.008464 -0.010466 -0.0103266 -0.008464 -0.00830276 -0.0103266 -0.0101802 -0.00830276 -0.00813218 -0.0101802 -0.0100281 -0.00813218 -0.00795418 -0.0100281 -0.0098717 -0.00795418 -0.00777069 -0.0098717 -0.00971243 -0.00777069 -0.00758358 -0.00971243 -0.00955155 -0.00758358 -0.00739454 -0.00955155 -0.00939019 -0.00739454 -0.00720501 -0.00939019 -0.00922931 -0.00720501 -0.00701621 -0.00922931 -0.00906968 -0.00701621 -0.0068291 -0.00906968 -0.00891192 -0.0068291 -0.00664442 -0.00891192 -0.00875648 -0.00664442 -0.00646272 -0.00875648 -0.00860371 -0.00646272 -0.00628441 -0.00860371 -0.00845385 -0.00628441 -0.00610978 -0.00845385 -0.00830709 -0.00610978 -0.005939 -0.00830709 -0.00816353 -0.005939 -0.00577222 -0.00816353 -0.00802327 -0.00577222 -0.00560951 -0.00802327 -0.00788638 -0.00560951 -0.00545092 -0.00788638 -0.00775289 -0.00545092 -0.00529645 -0.00775289 -0.00762282 -0.00529645 -0.0051461 -0.00762282 -0.00749617 -0.0051461 -0.00499983 -0.00749617 -0.00737292 -0.00499983 -0.00485758 -0.00737292 -0.00725304 -0.00485758 -0.0047193 -0.00725304 -0.00713647 -0.0047193 -0.00458491 -0.00713647 -0.00702316 -0.00458491 -0.00445434 -0.00702316 -0.00691305 -0.00445434 -0.00432751 -0.00691305 -0.00680608 -0.00432751 -0.00420436 -0.00680608 -0.00670219 -0.00420436 -0.00408483 -0.00670219 -0.00660136 -0.00408483 -0.00396887 -0.00660136 -0.00650353 -0.00396887 -0.00385644 -0.00650353 -0.0064087 -0.00385644 -0.00374751 -0.0064087 -0.00631682 -0.00374751 -0.00364203 -0.00631682 -0.00622788 -0.00364203 -0.00353998 -0.00622788 -0.00614186 -0.00353998 -0.00344132 -0.00614186 -0.00605871 -0.00344132 -0.003346 -0.00605871 -0.00597841 -0.003346 -0.00325399 -0.00597841 -0.00590091 -0.00325399 -0.00316524 -0.00590091 -0.00582618 -0.00316524 -0.00307971 -0.00582618 -0.00575418 -0.00307971 -0.00299733 -0.00575418 -0.00568485 -0.00299733 -0.00291805 -0.00568485 -0.00561814 -0.00291805 -0.0028418 -0.00561814 -0.00555401 -0.0028418 -0.00276849 -0.00555401 -0.00549237 -0.00276849 -0.00269804 -0.00549237 -0.00543315 -0.00269804 -0.00263031 -0.00543315 -0.00537624 -0.00263031 -0.00256513 -0.00537624 -0.00532152 -0.00256513 -0.00250231 -0.00532152 -0.00526882 -0.00250231 -0.00244159 -0.00526882 -0.00521794 -0.00244159 -0.00238266 -0.00521794 -0.00516865 -0.00238266 -0.00232512 -0.00516865 -0.00512063 -0.00232512 -0.0022685 -0.00512063 -0.00507355 -0.0022685 -0.00221224 -0.00507355 -0.00502697 -0.00221224 -0.00215564 -0.00502697 -0.00498039 -0.00215564 -0.0020979 -0.00498039 -0.00493324 -0.0020979 -0.00203808 -0.00493324 -0.00488485 -0.00203808 -0.00197509 -0.00488485 -0.00483446 -0.00197509 -0.00190771 -0.00483446 -0.00478123 -0.00190771 -0.00183455 -0.00478123 -0.00472424 -0.00183455 -0.00175414 -0.00472424 -0.00466246 -0.00175414 -0.00166487 -0.00466246 -0.00459484 -0.00166487 -0.00156516 -0.00459484 -0.00452026 -0.00156516 -0.00145348 -0.00452026 -0.00443766 -0.00145348 -0.00132851 -0.00443766 -0.00434602 -0.00132851 -0.00118938 -0.00434602 -0.00424456 -0.00118938 -0.00103581 -0.00424456 -0.0041329 -0.00103581 -0.000868378 -0.0041329 -0.00401129 -0.000868378 -0.00068867 -0.00401129 -0.00388085 -0.00068867 -0.000499264 -0.00388085 -0.00374365 -0.000499264 -0.000303573 -0.00374365 -0.00360258 -0.000303573 -0.000105484 -0.00360258 -0.00346091 -0.000105484 9.10719e-05 -0.00346091 -0.00332187 9.10719e-05 0.000282521 -0.00332187 -0.00318815 0.000282521 0.000465906 -0.00318815 -0.00306175 0.000465906 0.000638975 -0.00306175 -0.00294398 0.000638975 0.000800144 -0.00294398 -0.00283561 0.000800144 0.000948373 -0.00283561 -0.00273707 0.000948373 0.00108301 -0.00273707 -0.00264857 0.00108301 0.00120368 -0.00264857 -0.00257021 0.00120368 0.00131012 -0.00257021 -0.00250204 0.00131012 0.00140212 -0.00250204 -0.00244409 0.00140212 0.00147947 -0.00244409 -0.00239637 0.00147947 0.00154187 -0.00239637 -0.00235895 0.00154187 0.00158895 -0.00235895 -0.00233193 0.00158895 0.0016203 -0.00233193 -0.00231543 0.0016203 0.00163552 -0.00231543 -0.00230961 0.00163552 0.00163441 -0.00230961 -0.00231447 0.00163441 0.00161721 -0.00231447 -0.00232969 0.00161721 0.00158489 -0.00232969 -0.00235429 0.00158489 0.00153949 -0.00235429 -0.00238622 0.00153949 0.00148455 -0.00238622 -0.00242188 0.00148455 0.00142566 -0.00242188 -0.00245541 0.00142566 0.00137127 -0.00245541 -0.00247807 0.00137127 0.00133448 -0.00247807 -0.00247822 0.00133448 0.00133733 -0.00247822 -0.00244643 0.00133733 0.00141634 -0.00244643 -0.00239274 0.00141634 0.00157879 -0.00239274 -0.00243355 0.00157879 0.00128639 -0.00243355 -0.0028704 0.00128639 -0.000150681 -0.0028704 -0.0042939 -0.000150681 -0.00179211 -0.0042939 -0.00593413 -0.00179211 -0.00348124 -0.00593413 -0.00766268 0 -0.000948328 0 -0.000954237 -0.000948328 -0.00242271 -0.000954237 -0.00245115 -0.00242271 -0.00413053 -0.00245115 -0.00412523 -0.00413053 -0.00583637 -0.00412523 -0.00583182 -0.00583637 -0.0075031 -0.00583182 -0.00753092 -0.0075031 -0.00912542 -0.00753092 -0.00921741 -0.00912542 -0.0106486 -0.00921741 -0.0108739 -0.0106486 -0.011727 -0.0108739 -0.0124257 -0.011727 -0.0117862 -0.0124257 -0.0135271 -0.0117862 -0.0116677 -0.0135271 -0.013581 -0.0116677 -0.0115559 -0.013581 -0.0134472 -0.0115559 -0.0114447 -0.0134472 -0.0133228 -0.0114447 -0.011337 -0.0133228 -0.0132044 -0.011337 -0.0112347 -0.0132044 -0.0130948 -0.0112347 -0.0111364 -0.0130948 -0.0129931 -0.0111364 -0.0110393 -0.0129931 -0.0128947 -0.0110393 -0.0109394 -0.0128947 -0.0127948 -0.0109394 -0.0108336 -0.0127948 -0.0126897 -0.0108336 -0.0107199 -0.0126897 -0.0125779 -0.0107199 -0.0105974 -0.0125779 -0.0124593 -0.0105974 -0.010466 -0.0124593 -0.0123344 -0.010466 -0.0103266 -0.0123344 -0.0122045 -0.0103266 -0.0101802 -0.0122045 -0.0120708 -0.0101802 -0.0100281 -0.0120708 -0.0119345 -0.0100281 -0.0098717 -0.0119345 -0.011797 -0.0098717 -0.00971243 -0.011797 -0.0116592 -0.00971243 -0.00955155 -0.0116592 -0.0115219 -0.00955155 -0.00939019 -0.0115219 -0.0113859 -0.00939019 -0.00922931 -0.0113859 -0.0112517 -0.00922931 -0.00906968 -0.0112517 -0.0111196 -0.00906968 -0.00891192 -0.0111196 -0.0109898 -0.00891192 -0.00875648 -0.0109898 -0.0108626 -0.00875648 -0.00860371 -0.0108626 -0.010738 -0.00860371 -0.00845385 -0.010738 -0.010616 -0.00845385 -0.00830709 -0.010616 -0.0104967 -0.00830709 -0.00816353 -0.0104967 -0.01038 -0.00816353 -0.00802327 -0.01038 -0.0102661 -0.00802327 -0.00788638 -0.0102661 -0.0101549 -0.00788638 -0.00775289 -0.0101549 -0.0100464 -0.00775289 -0.00762282 -0.0100464 -0.00994074 -0.00762282 -0.00749617 -0.00994074 -0.00983783 -0.00749617 -0.00737292 -0.00983783 -0.00973768 -0.00737292 -0.00725304 -0.00973768 -0.00964026 -0.00725304 -0.00713647 -0.00964026 -0.00954553 -0.00713647 -0.00702316 -0.00954553 -0.00945342 -0.00702316 -0.00691305 -0.00945342 -0.0093639 -0.00691305 -0.00680608 -0.0093639 -0.0092769 -0.00680608 -0.00670219 -0.0092769 -0.00919238 -0.00670219 -0.00660136 -0.00919238 -0.00911033 -0.00660136 -0.00650353 -0.00911033 -0.00903073 -0.00650353 -0.0064087 -0.00903073 -0.00895356 -0.0064087 -0.00631682 -0.00895356 -0.00887882 -0.00631682 -0.00622788 -0.00887882 -0.00880649 -0.00622788 -0.00614186 -0.00880649 -0.00873657 -0.00614186 -0.00605871 -0.00873657 -0.00866902 -0.00605871 -0.00597841 -0.00866902 -0.00860383 -0.00597841 -0.00590091 -0.00860383 -0.00854095 -0.00590091 -0.00582618 -0.00854095 -0.00848035 -0.00582618 -0.00575418 -0.00848035 -0.008422 -0.00575418 -0.00568485 -0.008422 -0.00836586 -0.00568485 -0.00561814 -0.00836586 -0.00831189 -0.00561814 -0.00555401 -0.00831189 -0.00826006 -0.00555401 -0.00549237 -0.00826006 -0.00821032 -0.00549237 -0.00543315 -0.00821032 -0.00816262 -0.00543315 -0.00537624 -0.00816262 -0.0081169 -0.00537624 -0.00532152 -0.0081169 -0.00807308 -0.00532152 -0.00526882 -0.00807308 -0.00803104 -0.00526882 -0.00521794 -0.00803104 -0.00799067 -0.00521794 -0.00516865 -0.00799067 -0.00795181 -0.00516865 -0.00512063 -0.00795181 -0.00791427 -0.00512063 -0.00507355 -0.00791427 -0.00787784 -0.00507355 -0.00502697 -0.00787784 -0.00784225 -0.00502697 -0.00498039 -0.00784225 -0.00780721 -0.00498039 -0.00493324 -0.00780721 -0.00777237 -0.00493324 -0.00488485 -0.00777237 -0.00773733 -0.00488485 -0.00483446 -0.00773733 -0.00770166 -0.00483446 -0.00478123 -0.00770166 -0.00766486 -0.00478123 -0.00472424 -0.00766486 -0.00762638 -0.00472424 -0.00466246 -0.00762638 -0.00758563 -0.00466246 -0.00459484 -0.00758563 -0.00754192 -0.00459484 -0.00452026 -0.00754192 -0.0074945 -0.00452026 -0.00443766 -0.0074945 -0.00744252 -0.00443766 -0.00434602 -0.00744252 -0.00738503 -0.00434602 -0.00424456 -0.00738503 -0.0073211 -0.00424456 -0.0041329 -0.0073211 -0.00724994 -0.0041329 -0.00401129 -0.00724994 -0.0071713 -0.00401129 -0.00388085 -0.0071713 -0.00708582 -0.00388085 -0.00374365 -0.00708582 -0.00699534 -0.00374365 -0.00360258 -0.00699534 -0.00690277 -0.00360258 -0.00346091 -0.00690277 -0.00681147 -0.00346091 -0.00332187 -0.00681147 -0.00672453 -0.00332187 -0.00318815 -0.00672453 -0.00664407 -0.00318815 -0.00306175 -0.00664407 -0.00657119 -0.00306175 -0.00294398 -0.00657119 -0.00650616 -0.00294398 -0.00283561 -0.00650616 -0.00644878 -0.00283561 -0.00273707 -0.00644878 -0.00639867 -0.00273707 -0.00264857 -0.00639867 -0.00635545 -0.00264857 -0.00257021 -0.00635545 -0.0063188 -0.00257021 -0.00250204 -0.0063188 -0.00628847 -0.00250204 -0.00244409 -0.00628847 -0.00626424 -0.00244409 -0.00239637 -0.00626424 -0.00624591 -0.00239637 -0.00235895 -0.00624591 -0.0062333 -0.00235895 -0.00233193 -0.0062333 -0.00622633 -0.00233193 -0.00231543 -0.00622633 -0.00622503 -0.00231543 -0.00230961 -0.00622503 -0.00622958 -0.00230961 -0.00231447 -0.00622958 -0.00624025 -0.00231447 -0.00232969 -0.00624025 -0.00625722 -0.00232969 -0.00235429 -0.00625722 -0.00628024 -0.00235429 -0.00238622 -0.00628024 -0.00630832 -0.00238622 -0.00242188 -0.00630832 -0.00633931 -0.00242188 -0.00245541 -0.00633931 -0.00636977 -0.00245541 -0.00247807 -0.00636977 -0.00639517 -0.00247807 -0.00247822 -0.00639517 -0.00641298 -0.00247822 -0.00244643 -0.00641298 -0.00643153 -0.00244643 -0.00239274 -0.00643153 -0.00650062 -0.00239274 -0.00243355 -0.00650062 -0.00669299 -0.00243355 -0.0028704 -0.00669299 -0.00724994 -0.0028704 -0.0042939 -0.00724994 -0.00867671 -0.0042939 -0.00593413 -0.00867671 -0.0103163 -0.00593413 -0.00766268 -0.0103163 -0.0120639 0 -0.000954237 0 -0.0011048 -0.000954237 -0.00245115 -0.0011048 -0.00266616 -0.00245115 -0.00412523 -0.00266616 -0.0042873 -0.00412523 -0.00583182 -0.0042873 -0.00594973 -0.00583182 -0.00753092 -0.00594973 -0.00763304 -0.00753092 -0.00921741 -0.00763304 -0.00931831 -0.00921741 -0.0108739 -0.00931831 -0.0109944 -0.0108739 -0.0124257 -0.0109944 -0.0126494 -0.0124257 -0.0135271 -0.0126494 -0.0142063 -0.0135271 -0.013581 -0.0142063 -0.015311 -0.013581 -0.0134472 -0.015311 -0.0153546 -0.0134472 -0.0133228 -0.0153546 -0.0152065 -0.0133228 -0.0132044 -0.0152065 -0.0150732 -0.0132044 -0.0130948 -0.0150732 -0.0149546 -0.0130948 -0.0129931 -0.0149546 -0.0148497 -0.0129931 -0.0128947 -0.0148497 -0.0147517 -0.0128947 -0.0127948 -0.0147517 -0.014653 -0.0127948 -0.0126897 -0.014653 -0.0145498 -0.0126897 -0.0125779 -0.0145498 -0.0144407 -0.0125779 -0.0124593 -0.0144407 -0.0143263 -0.0124593 -0.0123344 -0.0143263 -0.0142079 -0.0123344 -0.0122045 -0.0142079 -0.0140871 -0.0122045 -0.0120708 -0.0140871 -0.0139654 -0.0120708 -0.0119345 -0.0139654 -0.013844 -0.0119345 -0.011797 -0.013844 -0.0137241 -0.011797 -0.0116592 -0.0137241 -0.0136065 -0.0116592 -0.0115219 -0.0136065 -0.0134916 -0.0115219 -0.0113859 -0.0134916 -0.0133798 -0.0113859 -0.0112517 -0.0133798 -0.0132712 -0.0112517 -0.0111196 -0.0132712 -0.0131658 -0.0111196 -0.0109898 -0.0131658 -0.0130633 -0.0109898 -0.0108626 -0.0130633 -0.0129638 -0.0108626 -0.010738 -0.0129638 -0.0128668 -0.010738 -0.010616 -0.0128668 -0.0127724 -0.010616 -0.0104967 -0.0127724 -0.0126802 -0.0104967 -0.01038 -0.0126802 -0.0125902 -0.01038 -0.0102661 -0.0125902 -0.0125024 -0.0102661 -0.0101549 -0.0125024 -0.0124168 -0.0101549 -0.0100464 -0.0124168 -0.0123333 -0.0100464 -0.00994074 -0.0123333 -0.012252 -0.00994074 -0.00983783 -0.012252 -0.0121728 -0.00983783 -0.00973768 -0.0121728 -0.0120958 -0.00973768 -0.00964026 -0.0120958 -0.0120209 -0.00964026 -0.00954553 -0.0120209 -0.011948 -0.00954553 -0.00945342 -0.011948 -0.0118772 -0.00945342 -0.0093639 -0.0118772 -0.0118084 -0.0093639 -0.0092769 -0.0118084 -0.0117414 -0.0092769 -0.00919238 -0.0117414 -0.0116763 -0.00919238 -0.00911033 -0.0116763 -0.0116131 -0.00911033 -0.00903073 -0.0116131 -0.0115518 -0.00903073 -0.00895356 -0.0115518 -0.0114923 -0.00895356 -0.00887882 -0.0114923 -0.0114348 -0.00887882 -0.00880649 -0.0114348 -0.0113791 -0.00880649 -0.00873657 -0.0113791 -0.0113254 -0.00873657 -0.00866902 -0.0113254 -0.0112735 -0.00866902 -0.00860383 -0.0112735 -0.0112235 -0.00860383 -0.00854095 -0.0112235 -0.0111753 -0.00854095 -0.00848035 -0.0111753 -0.011129 -0.00848035 -0.008422 -0.011129 -0.0110844 -0.008422 -0.00836586 -0.0110844 -0.0110415 -0.00836586 -0.00831189 -0.0110415 -0.0110004 -0.00831189 -0.00826006 -0.0110004 -0.0109611 -0.00826006 -0.00821032 -0.0109611 -0.0109234 -0.00821032 -0.00816262 -0.0109234 -0.0108875 -0.00816262 -0.0081169 -0.0108875 -0.0108532 -0.0081169 -0.00807308 -0.0108532 -0.0108207 -0.00807308 -0.00803104 -0.0108207 -0.0107897 -0.00803104 -0.00799067 -0.0107897 -0.0107603 -0.00799067 -0.00795181 -0.0107603 -0.0107325 -0.00795181 -0.00791427 -0.0107325 -0.0107061 -0.00791427 -0.00787784 -0.0107061 -0.010