# vtk DataFile Version 3.0
#This file was generated by the deal.II library on 2021/2/11 at 23:34:01
ASCII
DATASET UNSTRUCTURED_GRID

POINTS 28800 double
0 -0.5 0
0.0166667 -0.5 0
0 -0.483333 0
0.0166667 -0.483333 0
0.0166667 -0.5 0
0.0333333 -0.5 0
0.0166667 -0.483333 0
0.0333333 -0.483333 0
0.0333333 -0.5 0
0.05 -0.5 0
0.0333333 -0.483333 0
0.05 -0.483333 0
0.05 -0.5 0
0.0666667 -0.5 0
0.05 -0.483333 0
0.0666667 -0.483333 0
0.0666667 -0.5 0
0.0833333 -0.5 0
0.0666667 -0.483333 0
0.0833333 -0.483333 0
0.0833333 -0.5 0
0.1 -0.5 0
0.0833333 -0.483333 0
0.1 -0.483333 0
0.1 -0.5 0
0.116667 -0.5 0
0.1 -0.483333 0
0.116667 -0.483333 0
0.116667 -0.5 0
0.133333 -0.5 0
0.116667 -0.483333 0
0.133333 -0.483333 0
0.133333 -0.5 0
0.15 -0.5 0
0.133333 -0.483333 0
0.15 -0.483333 0
0.15 -0.5 0
0.166667 -0.5 0
0.15 -0.483333 0
0.166667 -0.483333 0
0.166667 -0.5 0
0.183333 -0.5 0
0.166667 -0.483333 0
0.183333 -0.483333 0
0.183333 -0.5 0
0.2 -0.5 0
0.183333 -0.483333 0
0.2 -0.483333 0
0.2 -0.5 0
0.216667 -0.5 0
0.2 -0.483333 0
0.216667 -0.483333 0
0.216667 -0.5 0
0.233333 -0.5 0
0.216667 -0.483333 0
0.233333 -0.483333 0
0.233333 -0.5 0
0.25 -0.5 0
0.233333 -0.483333 0
0.25 -0.483333 0
0.25 -0.5 0
0.266667 -0.5 0
0.25 -0.483333 0
0.266667 -0.483333 0
0.266667 -0.5 0
0.283333 -0.5 0
0.266667 -0.483333 0
0.283333 -0.483333 0
0.283333 -0.5 0
0.3 -0.5 0
0.283333 -0.483333 0
0.3 -0.483333 0
0.3 -0.5 0
0.316667 -0.5 0
0.3 -0.483333 0
0.316667 -0.483333 0
0.316667 -0.5 0
0.333333 -0.5 0
0.316667 -0.483333 0
0.333333 -0.483333 0
0.333333 -0.5 0
0.35 -0.5 0
0.333333 -0.483333 0
0.35 -0.483333 0
0.35 -0.5 0
0.366667 -0.5 0
0.35 -0.483333 0
0.366667 -0.483333 0
0.366667 -0.5 0
0.383333 -0.5 0
0.366667 -0.483333 0
0.383333 -0.483333 0
0.383333 -0.5 0
0.4 -0.5 0
0.383333 -0.483333 0
0.4 -0.483333 0
0.4 -0.5 0
0.416667 -0.5 0
0.4 -0.483333 0
0.416667 -0.483333 0
0.416667 -0.5 0
0.433333 -0.5 0
0.416667 -0.483333 0
0.433333 -0.483333 0
0.433333 -0.5 0
0.45 -0.5 0
0.433333 -0.483333 0
0.45 -0.483333 0
0.45 -0.5 0
0.466667 -0.5 0
0.45 -0.483333 0
0.466667 -0.483333 0
0.466667 -0.5 0
0.483333 -0.5 0
0.466667 -0.483333 0
0.483333 -0.483333 0
0.483333 -0.5 0
0.5 -0.5 0
0.483333 -0.483333 0
0.5 -0.483333 0
0.5 -0.5 0
0.516667 -0.5 0
0.5 -0.483333 0
0.516667 -0.483333 0
0.516667 -0.5 0
0.533333 -0.5 0
0.516667 -0.483333 0
0.533333 -0.483333 0
0.533333 -0.5 0
0.55 -0.5 0
0.533333 -0.483333 0
0.55 -0.483333 0
0.55 -0.5 0
0.566667 -0.5 0
0.55 -0.483333 0
0.566667 -0.483333 0
0.566667 -0.5 0
0.583333 -0.5 0
0.566667 -0.483333 0
0.583333 -0.483333 0
0.583333 -0.5 0
0.6 -0.5 0
0.583333 -0.483333 0
0.6 -0.483333 0
0.6 -0.5 0
0.616667 -0.5 0
0.6 -0.483333 0
0.616667 -0.483333 0
0.616667 -0.5 0
0.633333 -0.5 0
0.616667 -0.483333 0
0.633333 -0.483333 0
0.633333 -0.5 0
0.65 -0.5 0
0.633333 -0.483333 0
0.65 -0.483333 0
0.65 -0.5 0
0.666667 -0.5 0
0.65 -0.483333 0
0.666667 -0.483333 0
0.666667 -0.5 0
0.683333 -0.5 0
0.666667 -0.483333 0
0.683333 -0.483333 0
0.683333 -0.5 0
0.7 -0.5 0
0.683333 -0.483333 0
0.7 -0.483333 0
0.7 -0.5 0
0.716667 -0.5 0
0.7 -0.483333 0
0.716667 -0.483333 0
0.716667 -0.5 0
0.733333 -0.5 0
0.716667 -0.483333 0
0.733333 -0.483333 0
0.733333 -0.5 0
0.75 -0.5 0
0.733333 -0.483333 0
0.75 -0.483333 0
0.75 -0.5 0
0.766667 -0.5 0
0.75 -0.483333 0
0.766667 -0.483333 0
0.766667 -0.5 0
0.783333 -0.5 0
0.766667 -0.483333 0
0.783333 -0.483333 0
0.783333 -0.5 0
0.8 -0.5 0
0.783333 -0.483333 0
0.8 -0.483333 0
0.8 -0.5 0
0.816667 -0.5 0
0.8 -0.483333 0
0.816667 -0.483333 0
0.816667 -0.5 0
0.833333 -0.5 0
0.816667 -0.483333 0
0.833333 -0.483333 0
0.833333 -0.5 0
0.85 -0.5 0
0.833333 -0.483333 0
0.85 -0.483333 0
0.85 -0.5 0
0.866667 -0.5 0
0.85 -0.483333 0
0.866667 -0.483333 0
0.866667 -0.5 0
0.883333 -0.5 0
0.866667 -0.483333 0
0.883333 -0.483333 0
0.883333 -0.5 0
0.9 -0.5 0
0.883333 -0.483333 0
0.9 -0.483333 0
0.9 -0.5 0
0.916667 -0.5 0
0.9 -0.483333 0
0.916667 -0.483333 0
0.916667 -0.5 0
0.933333 -0.5 0
0.916667 -0.483333 0
0.933333 -0.483333 0
0.933333 -0.5 0
0.95 -0.5 0
0.933333 -0.483333 0
0.95 -0.483333 0
0.95 -0.5 0
0.966667 -0.5 0
0.95 -0.483333 0
0.966667 -0.483333 0
0.966667 -0.5 0
0.983333 -0.5 0
0.966667 -0.483333 0
0.983333 -0.483333 0
0.983333 -0.5 0
1 -0.5 0
0.983333 -0.483333 0
1 -0.483333 0
1 -0.5 0
1.01667 -0.5 0
1 -0.483333 0
1.01667 -0.483333 0
1.01667 -0.5 0
1.03333 -0.5 0
1.01667 -0.483333 0
1.03333 -0.483333 0
1.03333 -0.5 0
1.05 -0.5 0
1.03333 -0.483333 0
1.05 -0.483333 0
1.05 -0.5 0
1.06667 -0.5 0
1.05 -0.483333 0
1.06667 -0.483333 0
1.06667 -0.5 0
1.08333 -0.5 0
1.06667 -0.483333 0
1.08333 -0.483333 0
1.08333 -0.5 0
1.1 -0.5 0
1.08333 -0.483333 0
1.1 -0.483333 0
1.1 -0.5 0
1.11667 -0.5 0
1.1 -0.483333 0
1.11667 -0.483333 0
1.11667 -0.5 0
1.13333 -0.5 0
1.11667 -0.483333 0
1.13333 -0.483333 0
1.13333 -0.5 0
1.15 -0.5 0
1.13333 -0.483333 0
1.15 -0.483333 0
1.15 -0.5 0
1.16667 -0.5 0
1.15 -0.483333 0
1.16667 -0.483333 0
1.16667 -0.5 0
1.18333 -0.5 0
1.16667 -0.483333 0
1.18333 -0.483333 0
1.18333 -0.5 0
1.2 -0.5 0
1.18333 -0.483333 0
1.2 -0.483333 0
1.2 -0.5 0
1.21667 -0.5 0
1.2 -0.483333 0
1.21667 -0.483333 0
1.21667 -0.5 0
1.23333 -0.5 0
1.21667 -0.483333 0
1.23333 -0.483333 0
1.23333 -0.5 0
1.25 -0.5 0
1.23333 -0.483333 0
1.25 -0.483333 0
1.25 -0.5 0
1.26667 -0.5 0
1.25 -0.483333 0
1.26667 -0.483333 0
1.26667 -0.5 0
1.28333 -0.5 0
1.26667 -0.483333 0
1.28333 -0.483333 0
1.28333 -0.5 0
1.3 -0.5 0
1.28333 -0.483333 0
1.3 -0.483333 0
1.3 -0.5 0
1.31667 -0.5 0
1.3 -0.483333 0
1.31667 -0.483333 0
1.31667 -0.5 0
1.33333 -0.5 0
1.31667 -0.483333 0
1.33333 -0.483333 0
1.33333 -0.5 0
1.35 -0.5 0
1.33333 -0.483333 0
1.35 -0.483333 0
1.35 -0.5 0
1.36667 -0.5 0
1.35 -0.483333 0
1.36667 -0.483333 0
1.36667 -0.5 0
1.38333 -0.5 0
1.36667 -0.483333 0
1.38333 -0.483333 0
1.38333 -0.5 0
1.4 -0.5 0
1.38333 -0.483333 0
1.4 -0.483333 0
1.4 -0.5 0
1.41667 -0.5 0
1.4 -0.483333 0
1.41667 -0.483333 0
1.41667 -0.5 0
1.43333 -0.5 0
1.41667 -0.483333 0
1.43333 -0.483333 0
1.43333 -0.5 0
1.45 -0.5 0
1.43333 -0.483333 0
1.45 -0.483333 0
1.45 -0.5 0
1.46667 -0.5 0
1.45 -0.483333 0
1.46667 -0.483333 0
1.46667 -0.5 0
1.48333 -0.5 0
1.46667 -0.483333 0
1.48333 -0.483333 0
1.48333 -0.5 0
1.5 -0.5 0
1.48333 -0.483333 0
1.5 -0.483333 0
1.5 -0.5 0
1.51667 -0.5 0
1.5 -0.483333 0
1.51667 -0.483333 0
1.51667 -0.5 0
1.53333 -0.5 0
1.51667 -0.483333 0
1.53333 -0.483333 0
1.53333 -0.5 0
1.55 -0.5 0
1.53333 -0.483333 0
1.55 -0.483333 0
1.55 -0.5 0
1.56667 -0.5 0
1.55 -0.483333 0
1.56667 -0.483333 0
1.56667 -0.5 0
1.58333 -0.5 0
1.56667 -0.483333 0
1.58333 -0.483333 0
1.58333 -0.5 0
1.6 -0.5 0
1.58333 -0.483333 0
1.6 -0.483333 0
1.6 -0.5 0
1.61667 -0.5 0
1.6 -0.483333 0
1.61667 -0.483333 0
1.61667 -0.5 0
1.63333 -0.5 0
1.61667 -0.483333 0
1.63333 -0.483333 0
1.63333 -0.5 0
1.65 -0.5 0
1.63333 -0.483333 0
1.65 -0.483333 0
1.65 -0.5 0
1.66667 -0.5 0
1.65 -0.483333 0
1.66667 -0.483333 0
1.66667 -0.5 0
1.68333 -0.5 0
1.66667 -0.483333 0
1.68333 -0.483333 0
1.68333 -0.5 0
1.7 -0.5 0
1.68333 -0.483333 0
1.7 -0.483333 0
1.7 -0.5 0
1.71667 -0.5 0
1.7 -0.483333 0
1.71667 -0.483333 0
1.71667 -0.5 0
1.73333 -0.5 0
1.71667 -0.483333 0
1.73333 -0.483333 0
1.73333 -0.5 0
1.75 -0.5 0
1.73333 -0.483333 0
1.75 -0.483333 0
1.75 -0.5 0
1.76667 -0.5 0
1.75 -0.483333 0
1.76667 -0.483333 0
1.76667 -0.5 0
1.78333 -0.5 0
1.76667 -0.483333 0
1.78333 -0.483333 0
1.78333 -0.5 0
1.8 -0.5 0
1.78333 -0.483333 0
1.8 -0.483333 0
1.8 -0.5 0
1.81667 -0.5 0
1.8 -0.483333 0
1.81667 -0.483333 0
1.81667 -0.5 0
1.83333 -0.5 0
1.81667 -0.483333 0
1.83333 -0.483333 0
1.83333 -0.5 0
1.85 -0.5 0
1.83333 -0.483333 0
1.85 -0.483333 0
1.85 -0.5 0
1.86667 -0.5 0
1.85 -0.483333 0
1.86667 -0.483333 0
1.86667 -0.5 0
1.88333 -0.5 0
1.86667 -0.483333 0
1.88333 -0.483333 0
1.88333 -0.5 0
1.9 -0.5 0
1.88333 -0.483333 0
1.9 -0.483333 0
1.9 -0.5 0
1.91667 -0.5 0
1.9 -0.483333 0
1.91667 -0.483333 0
1.91667 -0.5 0
1.93333 -0.5 0
1.91667 -0.483333 0
1.93333 -0.483333 0
1.93333 -0.5 0
1.95 -0.5 0
1.93333 -0.483333 0
1.95 -0.483333 0
1.95 -0.5 0
1.96667 -0.5 0
1.95 -0.483333 0
1.96667 -0.483333 0
1.96667 -0.5 0
1.98333 -0.5 0
1.96667 -0.483333 0
1.98333 -0.483333 0
1.98333 -0.5 0
2 -0.5 0
1.98333 -0.483333 0
2 -0.483333 0
0 -0.483333 0
0.0166667 -0.483333 0
0 -0.466667 0
0.0166667 -0.466667 0
0.0166667 -0.483333 0
0.0333333 -0.483333 0
0.0166667 -0.466667 0
0.0333333 -0.466667 0
0.0333333 -0.483333 0
0.05 -0.483333 0
0.0333333 -0.466667 0
0.05 -0.466667 0
0.05 -0.483333 0
0.0666667 -0.483333 0
0.05 -0.466667 0
0.0666667 -0.466667 0
0.0666667 -0.483333 0
0.0833333 -0.483333 0
0.0666667 -0.466667 0
0.0833333 -0.466667 0
0.0833333 -0.483333 0
0.1 -0.483333 0
0.0833333 -0.466667 0
0.1 -0.466667 0
0.1 -0.483333 0
0.116667 -0.483333 0
0.1 -0.466667 0
0.116667 -0.466667 0
0.116667 -0.483333 0
0.133333 -0.483333 0
0.116667 -0.466667 0
0.133333 -0.466667 0
0.133333 -0.483333 0
0.15 -0.483333 0
0.133333 -0.466667 0
0.15 -0.466667 0
0.15 -0.483333 0
0.166667 -0.483333 0
0.15 -0.466667 0
0.166667 -0.466667 0
0.166667 -0.483333 0
0.183333 -0.483333 0
0.166667 -0.466667 0
0.183333 -0.466667 0
0.183333 -0.483333 0
0.2 -0.483333 0
0.183333 -0.466667 0
0.2 -0.466667 0
0.2 -0.483333 0
0.216667 -0.483333 0
0.2 -0.466667 0
0.216667 -0.466667 0
0.216667 -0.483333 0
0.233333 -0.483333 0
0.216667 -0.466667 0
0.233333 -0.466667 0
0.233333 -0.483333 0
0.25 -0.483333 0
0.233333 -0.466667 0
0.25 -0.466667 0
0.25 -0.483333 0
0.266667 -0.483333 0
0.25 -0.466667 0
0.266667 -0.466667 0
0.266667 -0.483333 0
0.283333 -0.483333 0
0.266667 -0.466667 0
0.283333 -0.466667 0
0.283333 -0.483333 0
0.3 -0.483333 0
0.283333 -0.466667 0
0.3 -0.466667 0
0.3 -0.483333 0
0.316667 -0.483333 0
0.3 -0.466667 0
0.316667 -0.466667 0
0.316667 -0.483333 0
0.333333 -0.483333 0
0.316667 -0.466667 0
0.333333 -0.466667 0
0.333333 -0.483333 0
0.35 -0.483333 0
0.333333 -0.466667 0
0.35 -0.466667 0
0.35 -0.483333 0
0.366667 -0.483333 0
0.35 -0.466667 0
0.366667 -0.466667 0
0.366667 -0.483333 0
0.383333 -0.483333 0
0.366667 -0.466667 0
0.383333 -0.466667 0
0.383333 -0.483333 0
0.4 -0.483333 0
[...]
POINT_DATA 28800
SCALARS x1_displacement double 1
LOOKUP_TABLE default
0 0.012107 0 0.00859952 0.012107 0.0198145 0.00859952 0.0180836 0.0198145 0.0259404 0.0180836 0.0276869 0.0259404 0.0322954 0.0276869 0.0306604 0.0322954 0.0361291 0.0306604 0.0322864 0.0361291 0.0377249 0.0322864 0.0339738 0.0377249 0.0394136 0.0339738 0.0356828 0.0394136 0.041114 0.0356828 0.0374032 0.041114 0.0427984 0.0374032 0.03912 0.0427984 0.0444672 0.03912 0.0408041 0.0444672 0.0461264 0.0408041 0.042468 0.0461264 0.0477621 0.042468 0.0441092 0.0477621 0.0493637 0.0441092 0.045723 0.0493637 0.0509235 0.045723 0.047305 0.0509235 0.0524354 0.047305 0.0488521 0.0524354 0.053894 0.0488521 0.0503618 0.053894 0.0552937 0.0503618 0.0518322 0.0552937 0.0566281 0.0518322 0.0532613 0.0566281 0.0578906 0.0532613 0.0546471 0.0578906 0.0590766 0.0546471 0.0559885 0.0590766 0.0601872 0.0559885 0.0572873 0.0601872 0.0612334 0.0572873 0.0585508 0.0612334 0.0622364 0.0585508 0.0597923 0.0622364 0.0632244 0.0597923 0.0610286 0.0632244 0.064226 0.0610286 0.0622754 0.064226 0.0652649 0.0622754 0.063545 0.0652649 0.0663571 0.063545 0.0648457 0.0663571 0.06751 0.0648457 0.0661813 0.06751 0.0687231 0.0661813 0.0675516 0.0687231 0.0699907 0.0675516 0.0689535 0.0699907 0.0713056 0.0689535 0.0703833 0.0713056 0.0726619 0.0703833 0.0718385 0.0726619 0.0740558 0.0718385 0.0733177 0.0740558 0.0754851 0.0733177 0.0748203 0.0754851 0.0769479 0.0748203 0.0763453 0.0769479 0.0784419 0.0763453 0.0778914 0.0784419 0.0799643 0.0778914 0.0794569 0.0799643 0.0815125 0.0794569 0.0810403 0.0815125 0.0830844 0.0810403 0.0826405 0.0830844 0.0846784 0.0826405 0.0842565 0.0846784 0.0862932 0.0842565 0.0858876 0.0862932 0.0879277 0.0858876 0.0875332 0.0879277 0.0895808 0.0875332 0.0891925 0.0895808 0.0912511 0.0891925 0.0908647 0.0912511 0.0929374 0.0908647 0.0925488 0.0929374 0.0946381 0.0925488 0.0942439 0.0946381 0.0963521 0.0942439 0.0959492 0.0963521 0.0980782 0.0959492 0.0976638 0.0980782 0.0998153 0.0976638 0.099387 0.0998153 0.101563 0.099387 0.101118 0.101563 0.10332 0.101118 0.102857 0.10332 0.105087 0.102857 0.104602 0.105087 0.106863 0.104602 0.106354 0.106863 0.108646 0.106354 0.108111 0.108646 0.110434 0.108111 0.109873 0.110434 0.112222 0.109873 0.111635 0.112222 0.114005 0.111635 0.113394 0.114005 0.115778 0.113394 0.115144 0.115778 0.117543 0.115144 0.116877 0.117543 0.119314 0.116877 0.11859 0.119314 0.121108 0.11859 0.120285 0.121108 0.122935 0.120285 0.121961 0.122935 0.124786 0.121961 0.123619 0.124786 0.126647 0.123619 0.125265 0.126647 0.128508 0.125265 0.126908 0.128508 0.130366 0.126908 0.12855 0.130366 0.132218 0.12855 0.130192 0.132218 0.134064 0.130192 0.131835 0.134064 0.135905 0.131835 0.13348 0.135905 0.137739 0.13348 0.135126 0.137739 0.139567 0.135126 0.136772 0.139567 0.141388 0.136772 0.13842 0.141388 0.143204 0.13842 0.14007 0.143204 0.145013 0.14007 0.14172 0.145013 0.146817 0.14172 0.143372 0.146817 0.148614 0.143372 0.145025 0.148614 0.150404 0.145025 0.146679 0.150404 0.152189 0.146679 0.148334 0.152189 0.153968 0.148334 0.149991 0.153968 0.15574 0.149991 0.151648 0.15574 0.157506 0.151648 0.153307 0.157506 0.159266 0.153307 0.154967 0.159266 0.161019 0.154967 0.156629 0.161019 0.162767 0.156629 0.158291 0.162767 0.164508 0.158291 0.159955 0.164508 0.166243 0.159955 0.16162 0.166243 0.167972 0.16162 0.163287 0.167972 0.169695 0.163287 0.164954 0.169695 0.171412 0.164954 0.166623 0.171412 0.173122 0.166623 0.168293 0.173122 0.174826 0.168293 0.169964 0.174826 0.176524 0.169964 0.171636 0.176524 0.178216 0.171636 0.173309 0.178216 0.179902 0.173309 0.174984 0.179902 0.181581 0.174984 0.17666 0.181581 0.183255 0.17666 0.178337 0.183255 0.184922 0.178337 0.180016 0.184922 0.186583 0.180016 0.181695 0.186583 0.188237 0.181695 0.183376 0.188237 0.189886 0.183376 0.185058 0.189886 0.191528 0.185058 0.186741 0.191528 0.193164 0.186741 0.188426 0.193164 0.194794 0.188426 0.190111 0.194794 0.196418 0.190111 0.191798 0.196418 0.198036 0.191798 0.193486 0.198036 0.199647 0.193486 0.195176 0.199647 0.201252 0.195176 0.196866 0.201252 0.202851 0.196866 0.198558 0.202851 0.204444 0.198558 0.200251 0.204444 0.206031 0.200251 0.201945 0.206031 0.207611 0.201945 0.20364 0.207611 0.209186 0.20364 0.205337 0.209186 0.210754 0.205337 0.207034 0.210754 0.212318 0.207034 0.208732 0.212318 0.213877 0.208732 0.21043 0.213877 0.21544 0.21043 0.212117 0.21544 0.217025 0.212117 0.213791 0.217025 0.218644 0.213791 0.215459 0.218644 0.220293 0.215459 0.217126 0.220293 0.221956 0.217126 0.218795 0 0.00859952 0 0.0103617 0.00859952 0.0180836 0.0103617 0.0233622 0.0180836 0.0276869 0.0233622 0.0249134 0.0276869 0.0306604 0.0249134 0.0266488 0.0306604 0.0322864 0.0266488 0.0284359 0.0322864 0.0339738 0.0284359 0.0301981 0.0339738 0.0356828 0.0301981 0.0319708 0.0356828 0.0374032 0.0319708 0.0337294 0.0374032 0.03912 0.0337294 0.035466 0.03912 0.0408041 0.035466 0.0371759 0.0408041 0.042468 0.0371759 0.0388617 0.042468 0.0441092 0.0388617 0.0405233 0.0441092 0.045723 0.0405233 0.0421605 0.045723 0.047305 0.0421605 0.0437733 0.047305 0.0488521 0.0437733 0.0453622 0.0488521 0.0503618 0.0453622 0.0469286 0.0503618 0.0518322 0.0469286 0.0484744 0.0518322 0.0532613 0.0484744 0.0500016 0.0532613 0.0546471 0.0500016 0.0515108 0.0546471 0.0559885 0.0515108 0.0530002 0.0559885 0.0572873 0.0530002 0.0544682 0.0572873 0.0585508 0.0544682 0.0559181 0.0585508 0.0597923 0.0559181 0.0573607 0.0597923 0.0610286 0.0573607 0.0588095 0.0610286 0.0622754 0.0588095 0.060273 0.0622754 0.063545 0.060273 0.0617537 0.063545 0.0648457 0.0617537 0.0632526 0.0648457 0.0661813 0.0632526 0.0647697 0.0661813 0.0675516 0.0647697 0.0663022 0.0675516 0.0689535 0.0663022 0.0678454 0.0689535 0.0703833 0.0678454 0.069396 0.0703833 0.0718385 0.069396 0.0709541 0.0718385 0.0733177 0.0709541 0.0725214 0.0733177 0.0748203 0.0725214 0.0740999 0.0748203 0.0763453 0.0740999 0.0756904 0.0763453 0.0778914 0.0756904 0.0772923 0.0778914 0.0794569 0.0772923 0.0789045 0.0794569 0.0810403 0.0789045 0.0805261 0.0810403 0.0826405 0.0805261 0.0821569 0.0826405 0.0842565 0.0821569 0.0837968 0.0842565 0.0858876 0.0837968 0.0854461 0.0858876 0.0875332 0.0854461 0.0871046 0.0875332 0.0891925 0.0871046 0.0887722 0.0891925 0.0908647 0.0887722 0.0904484 0.0908647 0.0925488 0.0904484 0.0921326 0.0925488 0.0942439 0.0921326 0.0938243 0.0942439 0.0959492 0.0938243 0.0955229 0.0959492 0.0976638 0.0955229 0.0972278 0.0976638 0.099387 0.0972278 0.0989386 0.099387 0.101118 0.0989386 0.100655 0.101118 0.102857 0.100655 0.102376 0.102857 0.104602 0.102376 0.104102 0.104602 0.106354 0.104102 0.105833 0.106354 0.108111 0.105833 0.107568 0.108111 0.109873 0.107568 0.109309 0.109873 0.111635 0.109309 0.111054 0.111635 0.113394 0.111054 0.112801 0.113394 0.115144 0.112801 0.114541 0.115144 0.116877 0.114541 0.116258 0.116877 0.11859 0.116258 0.117931 0.11859 0.120285 0.117931 0.119529 0.120285 0.121961 0.119529 0.121024 0.121961 0.123619 0.121024 0.122463 0.123619 0.125265 0.122463 0.123891 0.125265 0.126908 0.123891 0.125313 0.126908 0.12855 0.125313 0.126739 0.12855 0.130192 0.126739 0.128171 0.130192 0.131835 0.128171 0.129611 0.131835 0.13348 0.129611 0.13106 0.13348 0.135126 0.13106 0.132517 0.135126 0.136772 0.132517 0.133983 0.136772 0.13842 0.133983 0.135457 0.13842 0.14007 0.135457 0.13694 0.14007 0.14172 0.13694 0.138431 0.14172 0.143372 0.138431 0.139932 0.143372 0.145025 0.139932 0.14144 0.145025 0.146679 0.14144 0.142958 0.146679 0.148334 0.142958 0.144484 0.148334 0.149991 0.144484 0.146018 0.149991 0.151648 0.146018 0.147562 0.151648 0.153307 0.147562 0.149113 0.153307 0.154967 0.149113 0.150674 0.154967 0.156629 0.150674 0.152243 0.156629 0.158291 0.152243 0.153821 0.158291 0.159955 0.153821 0.155407 0.159955 0.16162 0.155407 0.157002 0.16162 0.163287 0.157002 0.158605 0.163287 0.164954 0.158605 0.160217 0.164954 0.166623 0.160217 0.161838 0.166623 0.168293 0.161838 0.163467 0.168293 0.169964 0.163467 0.165105 0.169964 0.171636 0.165105 0.166752 0.171636 0.173309 0.166752 0.168407 0.173309 0.174984 0.168407 0.170071 0.174984 0.17666 0.170071 0.171743 0.17666 0.178337 0.171743 0.173425 0.178337 0.180016 0.173425 0.175114 0.180016 0.181695 0.175114 0.176812 0.181695 0.183376 0.176812 0.178519 0.183376 0.185058 0.178519 0.180235 0.185058 0.186741 0.180235 0.181959 0.186741 0.188426 0.181959 0.183692 0.188426 0.190111 0.183692 0.185433 0.190111 0.191798 0.185433 0.187183 0.191798 0.193486 0.187183 0.188942 0.193486 0.195176 0.188942 0.190709 0.195176 0.196866 0.190709 0.192485 0.196866 0.198558 0.192485 0.194269 0.198558 0.200251 0.194269 0.196062 0.200251 0.201945 0.196062 0.197864 0.201945 0.20364 0.197864 0.199674 0.20364 0.205337 0.199674 0.201493 0.205337 0.207034 0.201493 0.203319 0.207034 0.208732 0.203319 0.205152 0.208732 0.21043 0.205152 0.206988 0.21043 0.212117 0.206988 0.208816 0.212117 0.213791 0.208816 0.210578 0.213791 0.215459 0.210578 0.212275 0.215459 0.217126 0.212275 0.213956 0.217126 0.218795 0.213956 0.215631 0 0.0103617 0 0.0175817 0.0103617 0.0233622 0.0175817 0.0192416 0.0233622 0.0249134 0.0192416 0.0209912 0.0249134 0.0266488 0.0209912 0.0227711 0.0266488 0.0284359 0.0227711 0.0246446 0.0284359 0.0301981 0.0246446 0.0264966 0.0301981 0.0319708 0.0264966 0.0283124 0.0319708 0.0337294 0.0283124 0.030098 0.0337294 0.035466 0.030098 0.0318582 0.035466 0.0371759 0.0318582 0.0335944 0.0371759 0.0388617 0.0335944 0.0353047 0.0388617 0.0405233 0.0353047 0.0369901 0.0405233 0.0421605 0.0369901 0.0386536 0.0421605 0.0437733 0.0386536 0.0402986 0.0437733 0.0453622 0.0402986 0.0419286 0.0453622 0.0469286 0.0419286 0.0435485 0.0469286 0.0484744 0.0435485 0.0451642 0.0484744 0.0500016 0.0451642 0.046782 0.0500016 0.0515108 0.046782 0.0484057 0.0515108 0.0530002 0.0484057 0.0500338 0.0530002 0.0544682 0.0500338 0.0516597 0.0544682 0.0559181 0.0516597 0.0532817 0.0559181 0.0573607 0.0532817 0.0549135 0.0573607 0.0588095 0.0549135 0.056571 0.0588095 0.060273 0.056571 0.0582522 0.060273 0.0617537 0.0582522 0.0599442 0.0617537 0.0632526 0.0599442 0.0616394 0.0632526 0.0647697 0.0616394 0.0633361 0.0647697 0.0663022 0.0633361 0.0650301 0.0663022 0.0678454 0.0650301 0.0667133 0.0678454 0.069396 0.0667133 0.068383 0.069396 0.0709541 0.068383 0.0700423 0.0709541 0.0725214 0.0700423 0.0716968 0.0725214 0.0740999 0.0716968 0.0733514 0.0740999 0.0756904 0.0733514 0.0750084 0.0756904 0.0772923 0.0750084 0.0766673 0.0772923 0.0789045 0.0766673 0.0783271 0.0789045 0.0805261 0.0783271 0.0799874 0.0805261 0.0821569 0.0799874 0.0816492 0.0821569 0.0837968 0.0816492 0.0833135 0.0837968 0.0854461 0.0833135 0.0849816 0.0854461 0.0871046 0.0849816 0.086654 0.0871046 0.0887722 0.086654 0.0883309 0.0887722 0.0904484 0.0883309 0.0900121 0.0904484 0.0921326 0.0900121 0.0916975 0.0921326 0.0938243 0.0916975 0.0933869 0.0938243 0.0955229 0.0933869 0.0950801 0.0955229 0.0972278 0.0950801 0.0967767 0.0972278 0.0989386 0.0967767 0.0984763 0.0989386 0.100655 0.0984763 0.100179 0.100655 0.102376 0.100179 0.101884 0.102376 0.104102 0.101884 0.103591 0.104102 0.105833 0.103591 0.105303 0.105833 0.107568 0.105303 0.107019 0.107568 0.109309 0.107019 0.108741 0.109309 0.111054 0.108741 0.110472 0.111054 0.112801 0.110472 0.112213 0.112801 0.114541 0.112213 0.113961 0.114541 0.116258 0.113961 0.115713 0.116258 0.117931 0.115713 0.117467 0.117931 0.119529 0.117467 0.11921 0.119529 0.121024 0.11921 0.120882 0.121024 0.122463 0.120882 0.122285 0.122463 0.123891 0.122285 0.123096 0.123891 0.125313 0.123096 0.124002 0.125313 0.126739 0.124002 0.125048 0.126739 0.128171 0.125048 0.126205 0.128171 0.129611 0.126205 0.127418 0.129611 0.13106 0.127418 0.128661 0.13106 0.132517 0.128661 0.129926 0.132517 0.133983 0.129926 0.131209 0.133983 0.135457 0.131209 0.132509 0.135457 0.13694 0.132509 0.133825 0.13694 0.138431 0.133825 0.135158 0.138431 0.139932 0.135158 0.136506 0.139932 0.14144 0.136506 0.137871 0.14144 0.142958 0.137871 0.139252 0.142958 0.144484 0.139252 0.140648 0.144484 0.146018 0.140648 0.142061 0.146018 0.147562 0.142061 0.14349 0.147562 0.149113 0.14349 0.144934 0.149113 0.150674 0.144934 0.146395 0.150674 0.152243 0.146395 0.147872 0.152243 0.153821 0.147872 0.149365 0.153821 0.155407 0.149365 0.150873 0.155407 0.157002 0.150873 0.152398 0.157002 0.158605 0.152398 0.153939 0.158605 0.160217 0.153939 0.155496 0.160217 0.161838 0.155496 0.157068 0.161838 0.163467 0.157068 0.158657 0.163467 0.165105 0.158657 0.160262 0.165105 0.166752 0.160262 0.161883 0.166752 0.168407 0.161883 0.16352 0.168407 0.170071 0.16352 0.165173 0.170071 0.171743 0.165173 0.166842 0.171743 0.173425 0.166842 0.168527 0.173425 0.175114 0.168527 0.170228 0.175114 0.176812 0.170228 0.171945 0.176812 0.178519 0.171945 0.173678 0.178519 0.180235 0.173678 0.175427 0.180235 0.181959 0.175427 0.177192 0.181959 0.183692 0.177192 0.178973 0.183692 0.185433 0.178973 0.18077 0.185433 0.187183 0.18077 0.182583 0.187183 0.188942 0.182583 0.184412 0.188942 0.190709 0.184412 0.186257 0.190709 0.192485 0.186257 0.188119 0.192485 0.194269 0.188119 0.189997 0.194269 0.196062 0.189997 0.191891 0.196062 0.197864 0.191891 0.193805 0.197864 0.199674 0.193805 0.195741 0.199674 0.201493 0.195741 0.197711 0.201493 0.203319 0.197711 0.199716 0.203319 0.205152 0.199716 0.201744 0.205152 0.206988 0.201744 0.203883 0.206988 0.208816 0.203883 0.205799 0.208816 0.210578 0.205799 0.207461 0.210578 0.212275 0.207461 0.209131 0.212275 0.213956 0.209131 0.210806 0.213956 0.215631 0.210806 0.212482 0 0.0175817 0 0.0135927 0.0175817 0.0192416 0.0135927 0.015371 0.0192416 0.0209912 0.015371 0.0172055 0.0209912 0.0227711 0.0172055 0.019086 0.0227711 0.0246446 0.019086 0.0209971 0.0246446 0.0264966 0.0209971 0.022877 0.0264966 0.0283124 0.022877 0.024724 0.0283124 0.030098 0.024724 0.0265381 0.030098 0.0318582 0.0265381 0.0283185 0.0318582 0.0335944 0.0283185 0.0300687 0.0335944 0.0353047 0.0300687 0.0317933 0.0353047 0.0369901 0.0317933 0.0334962 0.0369901 0.0386536 0.0334962 0.0351816 0.0386536 0.0402986 0.0351816 0.0368538 0.0402986 0.0419286 0.0368538 0.0385179 0.0419286 0.0435485 0.0385179 0.0401805 0.0435485 0.0451642 0.0401805 0.041851 0.0451642 0.046782 0.041851 0.0435405 0.046782 0.0484057 0.0435405 0.0452592 0.0484057 0.0500338 0.0452592 0.0470105 0.0500338 0.0516597 0.0470105 0.0487866 0.0516597 0.0532817 0.0487866 0.0505792 0.0532817 0.0549135 0.0505792 0.0524132 0.0549135 0.056571 0.0524132 0.0543127 0.056571 0.0582522 0.0543127 0.0562505 0.0582522 0.0599442 0.0562505 0.0581754 0.0599442 0.0616394 0.0581754 0.0600704 0.0616394 0.0633361 0.0600704 0.0619437 0.0633361 0.0650301 0.0619437 0.0637894 0.0650301 0.0667133 0.0637894 0.0656008 0.0667133 0.068383 0.0656008 0.0673805 0.068383 0.0700423 0.0673805 0.0691354 0.0700423 0.0716968 0.0691354 0.0708737 0.0716968 0.0733514 0.0708737 0.0726024 0.0733514 0.0750084 0.0726024 0.0743245 0.0750084 0.0766673 0.0743245 0.0760389 0.0766673 0.0783271 0.0760389 0.0777443 0.0783271 0.0799874 0.0777443 0.0794415 0.0799874 0.0816492 0.0794415 0.0811329 0.0816492 0.0833135 0.0811329 0.0828208 0.0833135 0.0849816 0.0828208 0.0845072 0.0849816 0.086654 0.0845072 0.0861932 0.086654 0.0883309 0.0861932 0.0878792 0.0883309 0.0900121 0.0878792 0.0895654 0.0900121 0.0916975 0.0895654 0.0912521 0.0916975 0.0933869 0.0912521 0.0929395 0.0933869 0.0950801 0.0929395 0.0946278 0.0950801 0.0967767 0.0946278 0.0963167 0.0967767 0.0984763 0.0963167 0.098006 0.0984763 0.100179 0.098006 0.0996955 0.100179 0.101884 0.0996955 0.101385 0.101884 0.103591 0.101385 0.103075 0.103591 0.105303 0.103075 0.104767 0.105303 0.107019 0.104767 0.106463 0.107019 0.108741 0.106463 0.108166 0.108741 0.110472 0.108166 0.109879 0.110472 0.112213 0.109879 0.11161 0.112213 0.113961 0.11161 0.113361 0.113961 0.115713 0.113361 0.115135 0.115713 0.117467 0.115135 0.116927 0.117467 0.11921 0.116927 0.118731 0.11921 0.120882 0.118731 0.120514 0.120882 0.122285 0.120514 0.122292 0.122285 0.123096 0.122292 0.124099 0.123096 0.124002 0.124099 0.12571 0.124002 0.125048 0.12571 0.126522 0.125048 0.126205 0.126522 0.127343 0.126205 0.127418 0.127343 0.128344 0.127418 0.128661 0.128344 0.129355 0.128661 0.129926 0.129355 0.130378 0.129926 0.131209 0.130378 0.131429 0.131209 0.132509 0.131429 0.132519 0.132509 0.133825 0.132519 0.133641 0.133825 0.135158 0.133641 0.134787 0.135158 0.136506 0.134787 0.135956 0.136506 0.137871 0.135956 0.13715 0.137871 0.139252 0.13715 0.138368 0.139252 0.140648 0.138368 0.139611 0.140648 0.142061 0.139611 0.140877 0.142061 0.14349 0.140877 0.142167 0.14349 0.144934 0.142167 0.143481 0.144934 0.146395 0.143481 0.144818 0.146395 0.147872 0.144818 0.14618 0.147872 0.149365 0.14618 0.147565 0.149365 0.150873 0.147565 0.148974 0.150873 0.152398 0.148974 0.150407 0.152398 0.153939 0.150407 0.151863 0.153939 0.155496 0.151863 0.153342 0.155496 0.157068 0.153342 0.154844 0.157068 0.158657 0.154844 0.15637 0.158657 0.160262 0.15637 0.157918 0.160262 0.161883 0.157918 0.159489 0.161883 0.16352 0.159489 0.161083 0.16352 0.165173 0.161083 0.1627 0.165173 0.166842 0.1627 0.164338 0.166842 0.168527 0.164338 0.165999 0.168527 0.170228 0.165999 0.167682 0.170228 0.171945 0.167682 0.169387 0.171945 0.173678 0.169387 0.171113 0.173678 0.175427 0.171113 0.172859 0.175427 0.177192 0.172859 0.174626 0.177192 0.178973 0.174626 0.176413 0.178973 0.18077 0.176413 0.178219 0.18077 0.182583 0.178219 0.180044 0.182583 0.184412 0.180044 0.181888 0.184412 0.186257 0.181888 0.18375 0.186257 0.188119 0.18375 0.18563 0.188119 0.189997 0.18563 0.187528 0.189997 0.191891 0.187528 0.189444 0.191891 0.193805 0.189444 0.191381 0.193805 0.195741 0.191381 0.193338 0.195741 0.197711 0.193338 0.195306 0.197711 0.199716 0.195306 0.197289 0.199716 0.201744 0.197289 0.199222 0.201744 0.203883 0.199222 0.201089 0.203883 0.205799 0.201089 0.202686 0.205799 0.207461 0.202686 0.204343 0.207461 0.209131 0.204343 0.206008 0.209131 0.210806 0.206008 0.207677 0.210806 0.212482 0.207677 0.20935 0 0.0135927 0 0.00908124 0.0135927 0.015371 0.00908124 0.0114379 0.015371 0.0172055 0.0114379 0.0134842 0.0172055 0.019086 0.0134842 0.0154955 0.019086 0.0209971 0.0154955 0.0174623 0.0209971 0.022877 0.0174623 0.0193794 0.022877 0.024724 0.0193794 0.0212448 0.024724 0.0265381 0.0212448 0.0230628 0.0265381 0.0283185 0.0230628 0.0248415 0.0283185 0.0300687 0.0248415 0.0265899 0.0300687 0.0317933 0.0265899 0.028316 0.0317933 0.0334962 0.028316 0.030026 0.0334962 0.0351816 0.030026 0.0317248 0.0351816 0.0368538 0.0317248 0.0334157 0.0368538 0.0385179 0.0334157 0.0351026 0.0385179 0.0401805 0.0351026 0.0367918 0.0401805 0.041851 0.0367918 0.0384942 0.041851 0.0435405 0.0384942 0.0402249 0.0435405 0.0452592 0.0402249 0.0420011 0.0452592 0.0470105 0.0420011 0.0438367 0.0470105 0.0487866 0.0438367 0.0457327 0.0487866 0.0505792 0.0457327 0.0476979 0.0505792 0.0524132 0.0476979 0.0498102 0.0524132 0.0543127 0.0498102 0.0520598 0.0543127 0.0562505 0.0520598 0.0543135 0.0562505 0.0581754 0.0543135 0.0565266 0.0581754 0.0600704 0.0565266 0.0586521 0.0600704 0.0619437 0.0586521 0.0606685 0.0619437 0.0637894 0.0606685 0.0626245 0.0637894 0.0656008 0.0626245 0.0645374 0.0656008 0.0673805 0.0645374 0.0664154 0.0673805 0.0691354 0.0664154 0.0682629 0.0691354 0.0708737 0.0682629 0.070083 0.0708737 0.0726024 0.070083 0.0718829 0.0726024 0.0743245 0.0718829 0.0736654 0.0743245 0.0760389 0.0736654 0.0754289 0.0760389 0.0777443 0.0754289 0.0771742 0.0777443 0.0794415 0.0771742 0.0789043 0.0794415 0.0811329 0.0789043 0.0806228 0.0811329 0.0828208 0.0806228 0.0823325 0.0828208 0.0845072 0.0823325 0.0840359 0.0845072 0.0861932 0.0840359 0.0857343 0.0861932 0.0878792 0.0857343 0.0874281 0.0878792 0.0895654 0.0874281 0.0891178 0.0895654 0.0912521 0.0891178 0.0908045 0.0912521 0.0929395 0.0908045 0.0924892 0.0929395 0.0946278 0.0924892 0.0941723 0.0946278 0.0963167 0.0941723 0.0958538 0.0963167 0.098006 0.0958538 0.0975335 0.098006 0.0996955 0.0975335 0.099211 0.0996955 0.101385 0.099211 0.100886 0.101385 0.103075 0.100886 0.10256 0.103075 0.104767 0.10256 0.104232 0.104767 0.106463 