# vtk DataFile Version 3.0
#This file was generated by the deal.II library on 2021/2/12 at 0:00:23
ASCII
DATASET UNSTRUCTURED_GRID

POINTS 28800 double
0 -0.5 0
0.0166667 -0.5 0
0 -0.483333 0
0.0166667 -0.483333 0
0.0166667 -0.5 0
0.0333333 -0.5 0
0.0166667 -0.483333 0
0.0333333 -0.483333 0
0.0333333 -0.5 0
0.05 -0.5 0
0.0333333 -0.483333 0
0.05 -0.483333 0
0.05 -0.5 0
0.0666667 -0.5 0
0.05 -0.483333 0
0.0666667 -0.483333 0
0.0666667 -0.5 0
0.0833333 -0.5 0
0.0666667 -0.483333 0
0.0833333 -0.483333 0
0.0833333 -0.5 0
0.1 -0.5 0
0.0833333 -0.483333 0
0.1 -0.483333 0
0.1 -0.5 0
0.116667 -0.5 0
0.1 -0.483333 0
0.116667 -0.483333 0
0.116667 -0.5 0
0.133333 -0.5 0
0.116667 -0.483333 0
0.133333 -0.483333 0
0.133333 -0.5 0
0.15 -0.5 0
0.133333 -0.483333 0
0.15 -0.483333 0
0.15 -0.5 0
0.166667 -0.5 0
0.15 -0.483333 0
0.166667 -0.483333 0
0.166667 -0.5 0
0.183333 -0.5 0
0.166667 -0.483333 0
0.183333 -0.483333 0
0.183333 -0.5 0
0.2 -0.5 0
0.183333 -0.483333 0
0.2 -0.483333 0
0.2 -0.5 0
0.216667 -0.5 0
0.2 -0.483333 0
0.216667 -0.483333 0
0.216667 -0.5 0
0.233333 -0.5 0
0.216667 -0.483333 0
0.233333 -0.483333 0
0.233333 -0.5 0
0.25 -0.5 0
0.233333 -0.483333 0
0.25 -0.483333 0
0.25 -0.5 0
0.266667 -0.5 0
0.25 -0.483333 0
0.266667 -0.483333 0
0.266667 -0.5 0
0.283333 -0.5 0
0.266667 -0.483333 0
0.283333 -0.483333 0
0.283333 -0.5 0
0.3 -0.5 0
0.283333 -0.483333 0
0.3 -0.483333 0
0.3 -0.5 0
0.316667 -0.5 0
0.3 -0.483333 0
0.316667 -0.483333 0
0.316667 -0.5 0
0.333333 -0.5 0
0.316667 -0.483333 0
0.333333 -0.483333 0
0.333333 -0.5 0
0.35 -0.5 0
0.333333 -0.483333 0
0.35 -0.483333 0
0.35 -0.5 0
0.366667 -0.5 0
0.35 -0.483333 0
0.366667 -0.483333 0
0.366667 -0.5 0
0.383333 -0.5 0
0.366667 -0.483333 0
0.383333 -0.483333 0
0.383333 -0.5 0
0.4 -0.5 0
0.383333 -0.483333 0
0.4 -0.483333 0
0.4 -0.5 0
0.416667 -0.5 0
0.4 -0.483333 0
0.416667 -0.483333 0
0.416667 -0.5 0
0.433333 -0.5 0
0.416667 -0.483333 0
0.433333 -0.483333 0
0.433333 -0.5 0
0.45 -0.5 0
0.433333 -0.483333 0
0.45 -0.483333 0
0.45 -0.5 0
0.466667 -0.5 0
0.45 -0.483333 0
0.466667 -0.483333 0
0.466667 -0.5 0
0.483333 -0.5 0
0.466667 -0.483333 0
0.483333 -0.483333 0
0.483333 -0.5 0
0.5 -0.5 0
0.483333 -0.483333 0
0.5 -0.483333 0
0.5 -0.5 0
0.516667 -0.5 0
0.5 -0.483333 0
0.516667 -0.483333 0
0.516667 -0.5 0
0.533333 -0.5 0
0.516667 -0.483333 0
0.533333 -0.483333 0
0.533333 -0.5 0
0.55 -0.5 0
0.533333 -0.483333 0
0.55 -0.483333 0
0.55 -0.5 0
0.566667 -0.5 0
0.55 -0.483333 0
0.566667 -0.483333 0
0.566667 -0.5 0
0.583333 -0.5 0
0.566667 -0.483333 0
0.583333 -0.483333 0
0.583333 -0.5 0
0.6 -0.5 0
0.583333 -0.483333 0
0.6 -0.483333 0
0.6 -0.5 0
0.616667 -0.5 0
0.6 -0.483333 0
0.616667 -0.483333 0
0.616667 -0.5 0
0.633333 -0.5 0
0.616667 -0.483333 0
0.633333 -0.483333 0
0.633333 -0.5 0
0.65 -0.5 0
0.633333 -0.483333 0
0.65 -0.483333 0
0.65 -0.5 0
0.666667 -0.5 0
0.65 -0.483333 0
0.666667 -0.483333 0
0.666667 -0.5 0
0.683333 -0.5 0
0.666667 -0.483333 0
0.683333 -0.483333 0
0.683333 -0.5 0
0.7 -0.5 0
0.683333 -0.483333 0
0.7 -0.483333 0
0.7 -0.5 0
0.716667 -0.5 0
0.7 -0.483333 0
0.716667 -0.483333 0
0.716667 -0.5 0
0.733333 -0.5 0
0.716667 -0.483333 0
0.733333 -0.483333 0
0.733333 -0.5 0
0.75 -0.5 0
0.733333 -0.483333 0
0.75 -0.483333 0
0.75 -0.5 0
0.766667 -0.5 0
0.75 -0.483333 0
0.766667 -0.483333 0
0.766667 -0.5 0
0.783333 -0.5 0
0.766667 -0.483333 0
0.783333 -0.483333 0
0.783333 -0.5 0
0.8 -0.5 0
0.783333 -0.483333 0
0.8 -0.483333 0
0.8 -0.5 0
0.816667 -0.5 0
0.8 -0.483333 0
0.816667 -0.483333 0
0.816667 -0.5 0
0.833333 -0.5 0
0.816667 -0.483333 0
0.833333 -0.483333 0
0.833333 -0.5 0
0.85 -0.5 0
0.833333 -0.483333 0
0.85 -0.483333 0
0.85 -0.5 0
0.866667 -0.5 0
0.85 -0.483333 0
0.866667 -0.483333 0
0.866667 -0.5 0
0.883333 -0.5 0
0.866667 -0.483333 0
0.883333 -0.483333 0
0.883333 -0.5 0
0.9 -0.5 0
0.883333 -0.483333 0
0.9 -0.483333 0
0.9 -0.5 0
0.916667 -0.5 0
0.9 -0.483333 0
0.916667 -0.483333 0
0.916667 -0.5 0
0.933333 -0.5 0
0.916667 -0.483333 0
0.933333 -0.483333 0
0.933333 -0.5 0
0.95 -0.5 0
0.933333 -0.483333 0
0.95 -0.483333 0
0.95 -0.5 0
0.966667 -0.5 0
0.95 -0.483333 0
0.966667 -0.483333 0
0.966667 -0.5 0
0.983333 -0.5 0
0.966667 -0.483333 0
0.983333 -0.483333 0
0.983333 -0.5 0
1 -0.5 0
0.983333 -0.483333 0
1 -0.483333 0
1 -0.5 0
1.01667 -0.5 0
1 -0.483333 0
1.01667 -0.483333 0
1.01667 -0.5 0
1.03333 -0.5 0
1.01667 -0.483333 0
1.03333 -0.483333 0
1.03333 -0.5 0
1.05 -0.5 0
1.03333 -0.483333 0
1.05 -0.483333 0
1.05 -0.5 0
1.06667 -0.5 0
1.05 -0.483333 0
1.06667 -0.483333 0
1.06667 -0.5 0
1.08333 -0.5 0
1.06667 -0.483333 0
1.08333 -0.483333 0
1.08333 -0.5 0
1.1 -0.5 0
1.08333 -0.483333 0
1.1 -0.483333 0
1.1 -0.5 0
1.11667 -0.5 0
1.1 -0.483333 0
1.11667 -0.483333 0
1.11667 -0.5 0
1.13333 -0.5 0
1.11667 -0.483333 0
1.13333 -0.483333 0
1.13333 -0.5 0
1.15 -0.5 0
1.13333 -0.483333 0
1.15 -0.483333 0
1.15 -0.5 0
1.16667 -0.5 0
1.15 -0.483333 0
1.16667 -0.483333 0
1.16667 -0.5 0
1.18333 -0.5 0
1.16667 -0.483333 0
1.18333 -0.483333 0
1.18333 -0.5 0
1.2 -0.5 0
1.18333 -0.483333 0
1.2 -0.483333 0
1.2 -0.5 0
1.21667 -0.5 0
1.2 -0.483333 0
1.21667 -0.483333 0
1.21667 -0.5 0
1.23333 -0.5 0
1.21667 -0.483333 0
1.23333 -0.483333 0
1.23333 -0.5 0
1.25 -0.5 0
1.23333 -0.483333 0
1.25 -0.483333 0
1.25 -0.5 0
1.26667 -0.5 0
1.25 -0.483333 0
1.26667 -0.483333 0
1.26667 -0.5 0
1.28333 -0.5 0
1.26667 -0.483333 0
1.28333 -0.483333 0
1.28333 -0.5 0
1.3 -0.5 0
1.28333 -0.483333 0
1.3 -0.483333 0
1.3 -0.5 0
1.31667 -0.5 0
1.3 -0.483333 0
1.31667 -0.483333 0
1.31667 -0.5 0
1.33333 -0.5 0
1.31667 -0.483333 0
1.33333 -0.483333 0
1.33333 -0.5 0
1.35 -0.5 0
1.33333 -0.483333 0
1.35 -0.483333 0
1.35 -0.5 0
1.36667 -0.5 0
1.35 -0.483333 0
1.36667 -0.483333 0
1.36667 -0.5 0
1.38333 -0.5 0
1.36667 -0.483333 0
1.38333 -0.483333 0
1.38333 -0.5 0
1.4 -0.5 0
1.38333 -0.483333 0
1.4 -0.483333 0
1.4 -0.5 0
1.41667 -0.5 0
1.4 -0.483333 0
1.41667 -0.483333 0
1.41667 -0.5 0
1.43333 -0.5 0
1.41667 -0.483333 0
1.43333 -0.483333 0
1.43333 -0.5 0
1.45 -0.5 0
1.43333 -0.483333 0
1.45 -0.483333 0
1.45 -0.5 0
1.46667 -0.5 0
1.45 -0.483333 0
1.46667 -0.483333 0
1.46667 -0.5 0
1.48333 -0.5 0
1.46667 -0.483333 0
1.48333 -0.483333 0
1.48333 -0.5 0
1.5 -0.5 0
1.48333 -0.483333 0
1.5 -0.483333 0
1.5 -0.5 0
1.51667 -0.5 0
1.5 -0.483333 0
1.51667 -0.483333 0
1.51667 -0.5 0
1.53333 -0.5 0
1.51667 -0.483333 0
1.53333 -0.483333 0
1.53333 -0.5 0
1.55 -0.5 0
1.53333 -0.483333 0
1.55 -0.483333 0
1.55 -0.5 0
1.56667 -0.5 0
1.55 -0.483333 0
1.56667 -0.483333 0
1.56667 -0.5 0
1.58333 -0.5 0
1.56667 -0.483333 0
1.58333 -0.483333 0
1.58333 -0.5 0
1.6 -0.5 0
1.58333 -0.483333 0
1.6 -0.483333 0
1.6 -0.5 0
1.61667 -0.5 0
1.6 -0.483333 0
1.61667 -0.483333 0
1.61667 -0.5 0
1.63333 -0.5 0
1.61667 -0.483333 0
1.63333 -0.483333 0
1.63333 -0.5 0
1.65 -0.5 0
1.63333 -0.483333 0
1.65 -0.483333 0
1.65 -0.5 0
1.66667 -0.5 0
1.65 -0.483333 0
1.66667 -0.483333 0
1.66667 -0.5 0
1.68333 -0.5 0
1.66667 -0.483333 0
1.68333 -0.483333 0
1.68333 -0.5 0
1.7 -0.5 0
1.68333 -0.483333 0
1.7 -0.483333 0
1.7 -0.5 0
1.71667 -0.5 0
1.7 -0.483333 0
1.71667 -0.483333 0
1.71667 -0.5 0
1.73333 -0.5 0
1.71667 -0.483333 0
1.73333 -0.483333 0
1.73333 -0.5 0
1.75 -0.5 0
1.73333 -0.483333 0
1.75 -0.483333 0
1.75 -0.5 0
1.76667 -0.5 0
1.75 -0.483333 0
1.76667 -0.483333 0
1.76667 -0.5 0
1.78333 -0.5 0
1.76667 -0.483333 0
1.78333 -0.483333 0
1.78333 -0.5 0
1.8 -0.5 0
1.78333 -0.483333 0
1.8 -0.483333 0
1.8 -0.5 0
1.81667 -0.5 0
1.8 -0.483333 0
1.81667 -0.483333 0
1.81667 -0.5 0
1.83333 -0.5 0
1.81667 -0.483333 0
1.83333 -0.483333 0
1.83333 -0.5 0
1.85 -0.5 0
1.83333 -0.483333 0
1.85 -0.483333 0
1.85 -0.5 0
1.86667 -0.5 0
1.85 -0.483333 0
1.86667 -0.483333 0
1.86667 -0.5 0
1.88333 -0.5 0
1.86667 -0.483333 0
1.88333 -0.483333 0
1.88333 -0.5 0
1.9 -0.5 0
1.88333 -0.483333 0
1.9 -0.483333 0
1.9 -0.5 0
1.91667 -0.5 0
1.9 -0.483333 0
1.91667 -0.483333 0
1.91667 -0.5 0
1.93333 -0.5 0
1.91667 -0.483333 0
1.93333 -0.483333 0
1.93333 -0.5 0
1.95 -0.5 0
1.93333 -0.483333 0
1.95 -0.483333 0
1.95 -0.5 0
1.96667 -0.5 0
1.95 -0.483333 0
1.96667 -0.483333 0
1.96667 -0.5 0
1.98333 -0.5 0
1.96667 -0.483333 0
1.98333 -0.483333 0
1.98333 -0.5 0
2 -0.5 0
1.98333 -0.483333 0
2 -0.483333 0
0 -0.483333 0
0.0166667 -0.483333 0
0 -0.466667 0
0.0166667 -0.466667 0
0.0166667 -0.483333 0
0.0333333 -0.483333 0
0.0166667 -0.466667 0
0.0333333 -0.466667 0
0.0333333 -0.483333 0
0.05 -0.483333 0
0.0333333 -0.466667 0
0.05 -0.466667 0
0.05 -0.483333 0
0.0666667 -0.483333 0
0.05 -0.466667 0
0.0666667 -0.466667 0
0.0666667 -0.483333 0
0.0833333 -0.483333 0
0.0666667 -0.466667 0
0.0833333 -0.466667 0
0.0833333 -0.483333 0
0.1 -0.483333 0
0.0833333 -0.466667 0
0.1 -0.466667 0
0.1 -0.483333 0
0.116667 -0.483333 0
0.1 -0.466667 0
0.116667 -0.466667 0
0.116667 -0.483333 0
0.133333 -0.483333 0
0.116667 -0.466667 0
0.133333 -0.466667 0
0.133333 -0.483333 0
0.15 -0.483333 0
0.133333 -0.466667 0
0.15 -0.466667 0
0.15 -0.483333 0
0.166667 -0.483333 0
0.15 -0.466667 0
0.166667 -0.466667 0
0.166667 -0.483333 0
0.183333 -0.483333 0
0.166667 -0.466667 0
0.183333 -0.466667 0
0.183333 -0.483333 0
0.2 -0.483333 0
0.183333 -0.466667 0
0.2 -0.466667 0
0.2 -0.483333 0
0.216667 -0.483333 0
0.2 -0.466667 0
0.216667 -0.466667 0
0.216667 -0.483333 0
0.233333 -0.483333 0
0.216667 -0.466667 0
0.233333 -0.466667 0
0.233333 -0.483333 0
0.25 -0.483333 0
0.233333 -0.466667 0
0.25 -0.466667 0
0.25 -0.483333 0
0.266667 -0.483333 0
0.25 -0.466667 0
0.266667 -0.466667 0
0.266667 -0.483333 0
0.283333 -0.483333 0
0.266667 -0.466667 0
0.283333 -0.466667 0
0.283333 -0.483333 0
0.3 -0.483333 0
0.283333 -0.466667 0
0.3 -0.466667 0
0.3 -0.483333 0
0.316667 -0.483333 0
0.3 -0.466667 0
0.316667 -0.466667 0
0.316667 -0.483333 0
0.333333 -0.483333 0
0.316667 -0.466667 0
0.333333 -0.466667 0
0.333333 -0.483333 0
0.35 -0.483333 0
0.333333 -0.466667 0
0.35 -0.466667 0
0.35 -0.483333 0
0.366667 -0.483333 0
0.35 -0.466667 0
0.366667 -0.466667 0
0.366667 -0.483333 0
0.383333 -0.483333 0
0.366667 -0.466667 0
0.383333 -0.466667 0
0.383333 -0.483333 0
0.4 -0.483333 0
[...]
POINT_DATA 28800
SCALARS x1_displacement double 1
LOOKUP_TABLE default
0 -0.000531733 0 -0.000169939 -0.000531733 -0.000976346 -0.000169939 -0.000358788 -0.000976346 -0.00135991 -0.000358788 -0.000486221 -0.00135991 -0.00170718 -0.000486221 -0.000542035 -0.00170718 -0.00201359 -0.000542035 -0.000519863 -0.00201359 -0.00215539 -0.000519863 -0.000200084 -0.00215539 8.62867e-05 -0.000200084 0.00277957 8.62867e-05 0.00273264 0.00277957 0.00540577 0.00273264 0.00530308 0.00540577 0.00812111 0.00530308 0.00787138 0.00812111 0.0113071 0.00787138 0.0119717 0.0113071 0.0153954 0.0119717 0.0176375 0.0153954 0.0193832 0.0176375 0.0221971 0.0193832 0.0229818 0.0221971 0.0261064 0.0229818 0.0263313 0.0261064 0.029659 0.0263313 0.0295207 0.029659 0.0330034 0.0295207 0.0326026 0.0330034 0.0362241 0.0326026 0.0356122 0.0362241 0.0393734 0.0356122 0.0385759 0.0393734 0.0424882 0.0385759 0.0415148 0.0424882 0.0455985 0.0415148 0.0444476 0.0455985 0.0487335 0.0444476 0.0473923 0.0487335 0.0519266 0.0473923 0.0503672 0.0519266 0.0552239 0.0503672 0.0533941 0.0552239 0.0586988 0.0533941 0.0565007 0.0586988 0.0624816 0.0565007 0.0597277 0.0624816 0.0668349 0.0597277 0.0631474 0.0668349 0.0721375 0.0631474 0.0668609 0.0721375 0.075392 0.0668609 0.0703948 0.075392 0.0776179 0.0703948 0.0729707 0.0776179 0.079849 0.0729707 0.0752792 0.079849 0.0816969 0.0752792 0.0779264 0.0816969 0.0814682 0.0779264 0.0781715 0.0814682 0.0811226 0.0781715 0.078152 0.0811226 0.080771 0.078152 0.0780732 0.080771 0.0804397 0.0780732 0.0779612 0.0804397 0.0801282 0.0779612 0.0778369 0.0801282 0.079823 0.0778369 0.0777037 0.079823 0.0795196 0.0777037 0.0775656 0.0795196 0.0792235 0.0775656 0.0774309 0.0792235 0.0789358 0.0774309 0.0773034 0.0789358 0.0786458 0.0773034 0.077186 0.0786458 0.0783388 0.077186 0.077091 0.0783388 0.078011 0.077091 0.0770506 0.078011 0.0776719 0.0770506 0.0771341 0.0776719 0.077463 0.0771341 0.0777696 0.077463 0.0794781 0.0777696 0.0802883 0.0794781 0.0816069 0.0802883 0.0825949 0.0816069 0.084542 0.0825949 0.0855969 0.084542 0.0889422 0.0855969 0.0887198 0.0889422 0.0925985 0.0887198 0.0915814 0.0925985 0.0957387 0.0915814 0.0942571 0.0957387 0.098593 0.0942571 0.0968118 0.098593 0.101282 0.0968118 0.0992867 0.101282 0.103877 0.0992867 0.101712 0.103877 0.106426 0.101712 0.104112 0.106426 0.108963 0.104112 0.106507 0.108963 0.111522 0.106507 0.108916 0.111522 0.114133 0.108916 0.111358 0.114133 0.116839 0.111358 0.113852 0.116839 0.119698 0.113852 0.116422 0.119698 0.122815 0.116422 0.119101 0.122815 0.126392 0.119101 0.121944 0.126392 0.130723 0.121944 0.125027 0.130723 0.133615 0.125027 0.128011 0.133615 0.135749 0.128011 0.13031 0.135749 0.137901 0.13031 0.132402 0.137901 0.139702 0.132402 0.134857 0.139702 0.139478 0.134857 0.135065 0.139478 0.139156 0.135065 0.135034 0.139156 0.138849 0.135034 0.134965 0.138849 0.138569 0.134965 0.13488 0.138569 0.138299 0.13488 0.134775 0.138299 0.138022 0.134775 0.134663 0.138022 0.137737 0.134663 0.134552 0.137737 0.137454 0.134552 0.134438 0.137454 0.137174 0.134438 0.13434 0.137174 0.136882 0.13434 0.134258 0.136882 0.136562 0.134258 0.134208 0.136562 0.136218 0.134208 0.134258 0.136218 0.13599 0.134258 0.134811 0.13599 0.137837 0.134811 0.137077 0.137837 0.139829 0.137077 0.139042 0.139829 0.142136 0.139042 0.141246 0.142136 0.144429 0.141246 0.143357 0.144429 0.146424 0.143357 0.145414 0.146424 0.148475 0.145414 0.147937 0.148475 0.152706 0.147937 0.150755 0.152706 0.156272 0.150755 0.153324 0.156272 0.159625 0.153324 0.155872 0.159625 0.163273 0.155872 0.158599 0.163273 0.167745 0.158599 0.161765 0.167745 0.17357 0.161765 0.165721 0.17357 0.175793 0.165721 0.168634 0.175793 0.177918 0.168634 0.170866 0.177918 0.180048 0.170866 0.17316 0.180048 0.181805 0.17316 0.17563 0.181805 0.181674 0.17563 0.176211 0.181674 0.181393 0.176211 0.176282 0.181393 0.181123 0.176282 0.176275 0.181123 0.18085 0.176275 0.176254 0.18085 0.180564 0.176254 0.176234 0.180564 0.180277 0.176234 0.176235 0.180277 0.180013 0.176235 0.176241 0.180013 0.179779 0.176241 0.176242 0.179779 0.179577 0.176242 0.176238 0.179577 0.179406 0.176238 0.176228 0.179406 0.179266 0.176228 0.176212 0.179266 0.179158 0.176212 0.176191 0.179158 0.179081 0.176191 0.176163 0.179081 0.179035 0.176163 0.17613 0.179035 0.179021 0.17613 0.17609 0.179021 0.179038 0.17609 0.176045 0.179038 0.179086 0.176045 0.175994 0.179086 0.179165 0.175994 0.175938 0.179165 0.179273 0.175938 0.175879 0.179273 0.179396 0.175879 0.175832 0.179396 0.179504 0.175832 0.175805 0.179504 0.17957 0.175805 0.175793 0.17957 0.179596 0.175793 0.175787 0.179596 0.179601 0.175787 0.175783 0 -0.000169939 0 2.72368e-05 -0.000169939 -0.000358788 2.72368e-05 9.27149e-05 -0.000358788 -0.000486221 9.27149e-05 0.000196914 -0.000486221 -0.000542035 0.000196914 0.000359148 -0.000542035 -0.000519863 0.000359148 0.000625979 -0.000519863 -0.000200084 0.000625979 0.00157538 -0.000200084 0.00277957 0.00157538 0.004963 0.00277957 0.00540577 0.004963 0.00794404 0.00540577 0.00812111 0.00794404 0.0108039 0.00812111 0.0113071 0.0108039 0.0137549 0.0113071 0.0153954 0.0137549 0.0168909 0.0153954 0.0193832 0.0168909 0.0201033 0.0193832 0.0229818 0.0201033 0.0232403 0.0229818 0.0263313 0.0232403 0.0262772 0.0263313 0.0295207 0.0262772 0.0292296 0.0295207 0.0326026 0.0292296 0.0321163 0.0326026 0.0356122 0.0321163 0.0349542 0.0356122 0.0385759 0.0349542 0.0377583 0.0385759 0.0415148 0.0377583 0.040542 0.0415148 0.0444476 0.040542 0.0433175 0.0444476 0.0473923 0.0433175 0.046096 0.0473923 0.0503672 0.046096 0.0488887 0.0503672 0.0533941 0.0488887 0.0517063 0.0533941 0.0565007 0.0517063 0.0545595 0.0565007 0.0597277 0.0545595 0.0574575 0.0597277 0.0631474 0.0574575 0.0604008 0.0631474 0.0668609 0.0604008 0.0633358 0.0668609 0.0703948 0.0633358 0.0661157 0.0703948 0.0729707 0.0661157 0.0687156 0.0729707 0.0752792 0.0687156 0.0713852 0.0752792 0.0779264 0.0713852 0.0744197 0.0779264 0.0781715 0.0744197 0.075232 0.0781715 0.078152 0.075232 0.0754066 0.078152 0.0780732 0.0754066 0.0754772 0.0780732 0.0779612 0.0754772 0.0755179 0.0779612 0.0778369 0.0755179 0.0755512 0.0778369 0.0777037 0.0755512 0.0755812 0.0777037 0.0775656 0.0755812 0.0756117 0.0775656 0.0774309 0.0756117 0.0756352 0.0774309 0.0773034 0.0756352 0.0756546 0.0773034 0.077186 0.0756546 0.0756712 0.077186 0.077091 0.0756712 0.0757005 0.077091 0.0770506 0.0757005 0.0757614 0.0770506 0.0771341 0.0757614 0.0760009 0.0771341 0.0777696 0.0760009 0.0778864 0.0777696 0.0802883 0.0778864 0.0804301 0.0802883 0.0825949 0.0804301 0.0828009 0.0825949 0.0855969 0.0828009 0.0851844 0.0855969 0.0887198 0.0851844 0.0876627 0.0887198 0.0915814 0.0876627 0.0901306 0.0915814 0.0942571 0.0901306 0.0925428 0.0942571 0.0968118 0.0925428 0.0949024 0.0968118 0.0992867 0.0949024 0.0972216 0.0992867 0.101712 0.0972216 0.0995133 0.101712 0.104112 0.0995133 0.101791 0.104112 0.106507 0.101791 0.104065 0.106507 0.108916 0.104065 0.106349 0.108916 0.111358 0.106349 0.108652 0.111358 0.113852 0.108652 0.110984 0.113852 0.116422 0.110984 0.113355 0.116422 0.119101 0.113355 0.115773 0.119101 0.121944 0.115773 0.118236 0.121944 0.125027 0.118236 0.120701 0.125027 0.128011 0.120701 0.123055 0.128011 0.13031 0.123055 0.125289 0.13031 0.132402 0.125289 0.127611 0.132402 0.134857 0.127611 0.130308 0.134857 0.135065 0.130308 0.130999 0.135065 0.135034 0.130999 0.131107 0.135034 0.134965 0.131107 0.131135 0.134965 0.13488 0.131135 0.131178 0.13488 0.134775 0.131178 0.13124 0.134775 0.134663 0.13124 0.13131 0.134663 0.134552 0.13131 0.131387 0.134552 0.134438 0.131387 0.13146 0.134438 0.13434 0.13146 0.131499 0.13434 0.134258 0.131499 0.131528 0.134258 0.134208 0.131528 0.131553 0.134208 0.134258 0.131553 0.13172 0.134258 0.134811 0.13172 0.133373 0.134811 0.137077 0.133373 0.135556 0.137077 0.139042 0.135556 0.137524 0.139042 0.141246 0.137524 0.139442 0.141246 0.143357 0.139442 0.141436 0.143357 0.145414 0.141436 0.14355 0.145414 0.147937 0.14355 0.145786 0.147937 0.150755 0.145786 0.147984 0.150755 0.153324 0.147984 0.150154 0.153324 0.155872 0.150154 0.152359 0.155872 0.158599 0.152359 0.154652 0.158599 0.161765 0.154652 0.157097 0.161765 0.165721 0.157097 0.159781 0.165721 0.168634 0.159781 0.16255 0.168634 0.170866 0.16255 0.164893 0.170866 0.17316 0.164893 0.167131 0.17316 0.17563 0.167131 0.16949 0.17563 0.176211 0.16949 0.171234 0.176211 0.176282 0.171234 0.171417 0.176282 0.176275 0.171417 0.171467 0.176275 0.176254 0.171467 0.17158 0.176254 0.176234 0.17158 0.171853 0.176234 0.176235 0.171853 0.172166 0.176235 0.176241 0.172166 0.172444 0.176241 0.176242 0.172444 0.17268 0.176242 0.176238 0.17268 0.172875 0.176238 0.176228 0.172875 0.173026 0.176228 0.176212 0.173026 0.173134 0.176212 0.176191 0.173134 0.173199 0.176191 0.176163 0.173199 0.173221 0.176163 0.17613 0.173221 0.173199 0.17613 0.17609 0.173199 0.173135 0.17609 0.176045 0.173135 0.173027 0.176045 0.175994 0.173027 0.172877 0.175994 0.175938 0.172877 0.172686 0.175938 0.175879 0.172686 0.172461 0.175879 0.175832 0.172461 0.172217 0.175832 0.175805 0.172217 0.172055 0.175805 0.175793 0.172055 0.171998 0.175793 0.175787 0.171998 0.171974 0.175787 0.175783 0.171974 0.171962 0 2.72368e-05 0 0.000161575 2.72368e-05 9.27149e-05 0.000161575 0.000384081 9.27149e-05 0.000196914 0.000384081 0.000646645 0.000196914 0.000359148 0.000646645 0.000989211 0.000359148 0.000625979 0.000989211 0.00172851 0.000625979 0.00157538 0.00172851 0.004071 0.00157538 0.004963 0.004071 0.00719141 0.004963 0.00794404 0.00719141 0.010081 0.00794404 0.0108039 0.010081 0.0128122 0.0108039 0.0137549 0.0128122 0.015452 0.0137549 0.0168909 0.015452 0.0180832 0.0168909 0.0201033 0.0180832 0.0207771 0.0201033 0.0232403 0.0207771 0.0235181 0.0232403 0.0262772 0.0235181 0.026258 0.0262772 0.0292296 0.026258 0.0289735 0.0292296 0.0321163 0.0289735 0.0316599 0.0321163 0.0349542 0.0316599 0.0343193 0.0349542 0.0377583 0.0343193 0.036957 0.0377583 0.040542 0.036957 0.039579 0.040542 0.0433175 0.039579 0.0421912 0.0433175 0.046096 0.0421912 0.0447988 0.046096 0.0488887 0.0447988 0.0474062 0.0488887 0.0517063 0.0474062 0.050015 0.0517063 0.0545595 0.050015 0.052623 0.0545595 0.0574575 0.052623 0.0552193 0.0574575 0.0604008 0.0552193 0.0577748 0.0604008 0.0633358 0.0577748 0.0602475 0.0633358 0.0661157 0.0602475 0.0626557 0.0661157 0.0687156 0.0626557 0.065106 0.0687156 0.0713852 0.065106 0.0676841 0.0713852 0.0744197 0.0676841 0.0704226 0.0744197 0.075232 0.0704226 0.0724242 0.075232 0.0754066 0.0724242 0.0729597 0.0754066 0.0754772 0.0729597 0.0731052 0.0754772 0.0755179 0.0731052 0.0731678 0.0755179 0.0755512 0.0731678 0.0732497 0.0755512 0.0755812 0.0732497 0.0734403 0.0755812 0.0756117 0.0734403 0.0736761 0.0756117 0.0756352 0.0736761 0.0738807 0.0756352 0.0756546 0.0738807 0.0739851 0.0756546 0.0756712 0.0739851 0.0740452 0.0756712 0.0757005 0.0740452 0.0741115 0.0757005 0.0757614 0.0741115 0.0742443 0.0757614 0.0760009 0.0742443 0.0749155 0.0760009 0.0778864 0.0749155 0.0777279 0.0778864 0.0804301 0.0777279 0.0800814 0.0804301 0.0828009 0.0800814 0.0822906 0.0828009 0.0851844 0.0822906 0.0843956 0.0851844 0.0876627 0.0843956 0.0865056 0.0876627 0.0901306 0.0865056 0.0886602 0.0901306 0.0925428 0.0886602 0.0908333 0.0925428 0.0949024 0.0908333 0.0930042 0.0949024 0.0972216 0.0930042 0.0951665 0.0972216 0.0995133 0.0951665 0.0973208 0.0995133 0.101791 0.0973208 0.0994703 0.101791 0.104065 0.0994703 0.10162 0.104065 0.106349 0.10162 0.103773 0.106349 0.108652 0.103773 0.105935 0.108652 0.110984 0.105935 0.108106 0.110984 0.113355 0.108106 0.110286 0.113355 0.115773 0.110286 0.112465 0.115773 0.118236 0.112465 0.114619 0.118236 0.120701 0.114619 0.116716 0.120701 0.123055 0.116716 0.118766 0.123055 0.125289 0.118766 0.120856 0.125289 0.127611 0.120856 0.123067 0.127611 0.130308 0.123067 0.125418 0.130308 0.130999 0.125418 0.127114 0.130999 0.131107 0.127114 0.127502 0.131107 0.131135 0.127502 0.12754 0.131135 0.131178 0.12754 0.127564 0.131178 0.13124 0.127564 0.127624 0.13124 0.13131 0.127624 0.128006 0.13131 0.131387 0.128006 0.128436 0.131387 0.13146 0.128436 0.128575 0.13146 0.131499 0.128575 0.128599 0.131499 0.131528 0.128599 0.128606 0.131528 0.131553 0.128606 0.128648 0.131553 0.13172 0.128648 0.129156 0.13172 0.133373 0.129156 0.131621 0.133373 0.135556 0.131621 0.133629 0.135556 0.137524 0.133629 0.135503 0.137524 0.139442 0.135503 0.137299 0.139442 0.141436 0.137299 0.139113 0.141436 0.14355 0.139113 0.140993 0.14355 0.145786 0.140993 0.142945 0.145786 0.147984 0.142945 0.144935 0.147984 0.150154 0.144935 0.146946 0.150154 0.152359 0.146946 0.148992 0.152359 0.154652 0.148992 0.151089 0.154652 0.157097 0.151089 0.15325 0.157097 0.159781 0.15325 0.155462 0.159781 0.16255 0.155462 0.157617 0.16255 0.164893 0.157617 0.159657 0.164893 0.167131 0.159657 0.161691 0.167131 0.16949 0.161691 0.163783 0.16949 0.171234 0.163783 0.16628 0.171234 0.171417 0.16628 0.16676 0.171417 0.171467 0.16676 0.166769 0.171467 0.17158 0.166769 0.166769 0.17158 0.171853 0.166769 0.166903 0.171853 0.172166 0.166903 0.167807 0.172166 0.172444 0.167807 0.168492 0.172444 0.17268 0.168492 0.169014 0.17268 0.172875 0.169014 0.169426 0.172875 0.173026 0.169426 0.169746 0.173026 0.173134 0.169746 0.169981 0.173134 0.173199 0.169981 0.170133 0.173199 0.173221 0.170133 0.170204 0.173221 0.173199 0.170204 0.170192 0.173199 0.173135 0.170192 0.170096 0.173135 0.173027 0.170096 0.169909 0.173027 0.172877 0.169909 0.169617 0.172877 0.172686 0.169617 0.169173 0.172686 0.172461 0.169173 0.16851 0.172461 0.172217 0.16851 0.168136 0.172217 0.172055 0.168136 0.16814 0.172055 0.171998 0.16814 0.168135 0.171998 0.171974 0.168135 0.168127 0.171974 0.171962 0.168127 0.16812 0 0.000161575 0 0.000233531 0.000161575 0.000384081 0.000233531 0.000530839 0.000384081 0.000646645 0.000530839 0.00088887 0.000646645 0.000989211 0.00088887 0.00155191 0.000989211 0.00172851 0.00155191 0.0036504 0.00172851 0.004071 0.0036504 0.00662493 0.004071 0.00719141 0.00662493 0.00928456 0.00719141 0.010081 0.00928456 0.011869 0.010081 0.0128122 0.011869 0.0143509 0.0128122 0.015452 0.0143509 0.0167431 0.015452 0.0180832 0.0167431 0.0190983 0.0180832 0.0207771 0.0190983 0.0214743 0.0207771 0.0235181 0.0214743 0.023895 0.0235181 0.026258 0.023895 0.0263497 0.026258 0.0289735 0.0263497 0.0288179 0.0289735 0.0316599 0.0288179 0.0312861 0.0316599 0.0343193 0.0312861 0.0337476 0.0343193 0.036957 0.0337476 0.0361998 0.036957 0.039579 0.0361998 0.0386421 0.039579 0.0421912 0.0386421 0.041075 0.0421912 0.0447988 0.041075 0.0434981 0.0447988 0.0474062 0.0434981 0.0459099 0.0474062 0.050015 0.0459099 0.0483064 0.050015 0.052623 0.0483064 0.0506789 0.052623 0.0552193 0.0506789 0.0530132 0.0552193 0.0577748 0.0530132 0.0552927 0.0577748 0.0602475 0.0552927 0.0575187 0.0602475 0.0626557 0.0575187 0.0597318 0.0626557 0.065106 0.0597318 0.0619921 0.065106 0.0676841 0.0619921 0.0643274 0.0676841 0.0704226 0.0643274 0.0666918 0.0704226 0.0724242 0.0666918 0.0692409 0.0724242 0.0729597 0.0692409 0.0709273 0.0729597 0.0731052 0.0709273 0.0710569 0.0731052 0.0731678 0.0710569 0.0710403 0.0731678 0.0732497 0.0710403 0.0710241 0.0732497 0.0734403 0.0710241 0.0710803 0.0734403 0.0736761 0.0710803 0.0719895 0.0736761 0.0738807 0.0719895 0.0721672 0.0738807 0.0739851 0.0721672 0.0721865 0.0739851 0.0740452 0.0721865 0.0722112 0.0740452 0.0741115 0.0722112 0.0723116 0.0741115 0.0742443 0.0723116 0.0727528 0.0742443 0.0749155 0.0727528 0.0745346 0.0749155 0.0777279 0.0745346 0.0770022 0.0777279 0.0800814 0.0770022 0.0792954 0.0800814 0.0822906 0.0792954 0.0813679 0.0822906 0.0843956 0.0813679 0.0833284 0.0843956 0.0865056 0.0833284 0.0852519 0.0865056 0.0886602 0.0852519 0.0871905 0.0886602 0.0908333 0.0871905 0.0891571 0.0908333 0.0930042 0.0891571 0.0911438 0.0930042 0.0951665 0.0911438 0.0931418 0.0951665 0.0973208 0.0931418 0.0951459 0.0973208 0.0994703 0.0951459 0.0971537 0.0994703 0.10162 0.0971537 0.0991641 0.10162 0.103773 0.0991641 0.101176 0.103773 0.105935 0.101176 0.103188 0.105935 0.108106 0.103188 0.105196 0.108106 0.110286 0.105196 0.107193 0.110286 0.112465 0.107193 0.109168 0.112465 0.114619 0.109168 0.111107 0.114619 0.116716 0.111107 0.11301 0.116716 0.118766 0.11301 0.11491 0.118766 0.120856 0.11491 0.116856 0.120856 0.123067 0.116856 0.118876 0.123067 0.125418 0.118876 0.120913 0.125418 0.127114 0.120913 0.123083 0.127114 0.127502 0.123083 0.124455 0.127502 0.12754 0.124455 0.124446 0.12754 0.127564 0.124446 0.124368 0.127564 0.127624 0.124368 0.124494 0.127624 0.128006 0.124494 0.124916 0.128006 0.128436 0.124916 0.125364 0.128436 0.128575 0.125364 0.125457 0.128575 0.128599 0.125457 0.125455 0.128599 0.128606 0.125455 0.125433 0.128606 0.128648 0.125433 0.125547 0.128648 0.129156 0.125547 0.127121 0.129156 0.131621 0.127121 0.129314 0.131621 0.133629 0.129314 0.131334 0.133629 0.135503 0.131334 0.133147 0.135503 0.137299 0.133147 0.134868 0.137299 0.139113 0.134868 0.136563 0.139113 0.140993 0.136563 0.13828 0.140993 0.142945 0.13828 0.140043 0.142945 0.144935 0.140043 0.141858 0.144935 0.146946 0.141858 0.143714 0.146946 0.148992 0.143714 0.145601 0.148992 0.151089 0.145601 0.147509 0.151089 0.15325 0.147509 0.149421 0.15325 0.155462 0.149421 0.151301 0.155462 0.157617 0.151301 0.153131 0.157617 0.159657 0.153131 0.154958 0.159657 0.161691 0.154958 0.156841 0.161691 0.163783 0.156841 0.158869 0.163783 0.16628 0.158869 0.160958 0.16628 0.16676 0.160958 0.162342 0.16676 0.166769 0.162342 0.162339 0.166769 0.166769 0.162339 0.162273 0.166769 0.166903 0.162273 0.162263 0.166903 0.167807 0.162263 0.162217 0.167807 0.168492 0.162217 0.163004 0.168492 0.169014 0.163004 0.163716 0.169014 0.169426 0.163716 0.164283 0.169426 0.169746 0.164283 0.164718 0.169746 0.169981 0.164718 0.165031 0.169981 0.170133 0.165031 0.165227 0.170133 0.170204 0.165227 0.16531 0.170204 0.170192 0.16531 0.16528 0.170192 0.170096 0.16528 0.165142 0.170096 0.169909 0.165142 0.164911 0.169909 0.169617 0.164911 0.164564 0.169617 0.169173 0.164564 0.164155 0.169173 0.16851 0.164155 0.164182 0.16851 0.168136 0.164182 0.164238 0.168136 0.16814 0.164238 0.164247 0.16814 0.168135 0.164247 0.164254 0.168135 0.168127 0.164254 0.164258 0.168127 0.16812 0.164258 0.164261 0 0.000233531 0 0.000258438 0.000233531 0.000530839 0.000258438 0.000597252 0.000530839 0.00088887 0.000597252 0.00120163 0.00088887 0.00155191 0.00120163 0.00314212 0.00155191 0.0036504 0.00314212 0.00595119 0.0036504 0.00662493 0.00595119 0.00849149 0.00662493 0.00928456 0.00849149 0.0109714 0.00928456 0.011869 0.0109714 0.0133196 0.011869 0.0143509 0.0133196 0.0155803 0.0143509 0.0167431 0.0155803 0.0177681 0.0167431 0.0190983 0.0177681 0.0199167 0.0190983 0.0214743 0.0199167 0.022067 0.0214743 0.023895 0.022067 0.0242456 0.023895 0.0263497 0.0242456 0.0264583 0.0263497 0.0288179 0.0264583 0.0286976 0.0288179 0.0312861 0.0286976 0.0309525 0.0312861 0.0337476 0.0309525 0.0332143 0.0337476 0.0361998 0.0332143 0.0354764 0.0361998 0.0386421 0.0354764 0.0377342 0.0386421 0.041075 0.0377342 0.0399841 0.041075 0.0434981 0.0399841 0.0422223 0.0434981 0.0459099 0.0422223 0.0444439 0.0459099 0.0483064 0.0444439 0.0466428 0.0483064 0.0506789 0.0466428 0.0488109 0.0506789 0.0530132 0.0488109 0.0509401 0.0530132 0.0552927 0.0509401 0.0530292 0.0552927 0.0575187 0.0530292 0.0550929 0.0575187 0.0597318 0.0550929 0.057165 0.0597318 0.0619921 0.057165 0.0592843 0.0619921 0.0643274 0.0592843 0.0614729 0.0643274 0.0666918 0.0614729 0.0637682 0.0666918 0.0692409 0.0637682 0.0660889 0.0692409 0.0709273 0.0660889 0.0686791 0.0709273 0.0710569 0.0686791 0.0691728 0.0710569 0.0710403 0.0691728 0.0691864 0.0710403 0.0710241 0.0691864 0.0691891 0.0710241 0.0710803 0.0691891 0.0692783 0.0710803 0.0719895 0.0692783 0.069781 0.0719895 0.0721672 0.069781 0.0701339 0.0721672 0.0721865 0.0701339 0.0701232 0.0721865 0.0722112 0.0701232 0.0701059 0.0722112 0.0723116 0.0701059 0.0702122 0.0723116 0.0727528 0.0702122 0.0717384 0.0727528 0.0745346 0.0717384 0.0740375 0.0745346 0.0770022 0.0740375 0.0761553 0.0770022 0