# vtk DataFile Version 3.0
#This file was generated by the deal.II library on 2021/2/11 at 23:28:48
ASCII
DATASET UNSTRUCTURED_GRID

POINTS 28800 double
0 -0.5 0
0.0166667 -0.5 0
0 -0.483333 0
0.0166667 -0.483333 0
0.0166667 -0.5 0
0.0333333 -0.5 0
0.0166667 -0.483333 0
0.0333333 -0.483333 0
0.0333333 -0.5 0
0.05 -0.5 0
0.0333333 -0.483333 0
0.05 -0.483333 0
0.05 -0.5 0
0.0666667 -0.5 0
0.05 -0.483333 0
0.0666667 -0.483333 0
0.0666667 -0.5 0
0.0833333 -0.5 0
0.0666667 -0.483333 0
0.0833333 -0.483333 0
0.0833333 -0.5 0
0.1 -0.5 0
0.0833333 -0.483333 0
0.1 -0.483333 0
0.1 -0.5 0
0.116667 -0.5 0
0.1 -0.483333 0
0.116667 -0.483333 0
0.116667 -0.5 0
0.133333 -0.5 0
0.116667 -0.483333 0
0.133333 -0.483333 0
0.133333 -0.5 0
0.15 -0.5 0
0.133333 -0.483333 0
0.15 -0.483333 0
0.15 -0.5 0
0.166667 -0.5 0
0.15 -0.483333 0
0.166667 -0.483333 0
0.166667 -0.5 0
0.183333 -0.5 0
0.166667 -0.483333 0
0.183333 -0.483333 0
0.183333 -0.5 0
0.2 -0.5 0
0.183333 -0.483333 0
0.2 -0.483333 0
0.2 -0.5 0
0.216667 -0.5 0
0.2 -0.483333 0
0.216667 -0.483333 0
0.216667 -0.5 0
0.233333 -0.5 0
0.216667 -0.483333 0
0.233333 -0.483333 0
0.233333 -0.5 0
0.25 -0.5 0
0.233333 -0.483333 0
0.25 -0.483333 0
0.25 -0.5 0
0.266667 -0.5 0
0.25 -0.483333 0
0.266667 -0.483333 0
0.266667 -0.5 0
0.283333 -0.5 0
0.266667 -0.483333 0
0.283333 -0.483333 0
0.283333 -0.5 0
0.3 -0.5 0
0.283333 -0.483333 0
0.3 -0.483333 0
0.3 -0.5 0
0.316667 -0.5 0
0.3 -0.483333 0
0.316667 -0.483333 0
0.316667 -0.5 0
0.333333 -0.5 0
0.316667 -0.483333 0
0.333333 -0.483333 0
0.333333 -0.5 0
0.35 -0.5 0
0.333333 -0.483333 0
0.35 -0.483333 0
0.35 -0.5 0
0.366667 -0.5 0
0.35 -0.483333 0
0.366667 -0.483333 0
0.366667 -0.5 0
0.383333 -0.5 0
0.366667 -0.483333 0
0.383333 -0.483333 0
0.383333 -0.5 0
0.4 -0.5 0
0.383333 -0.483333 0
0.4 -0.483333 0
0.4 -0.5 0
0.416667 -0.5 0
0.4 -0.483333 0
0.416667 -0.483333 0
0.416667 -0.5 0
0.433333 -0.5 0
0.416667 -0.483333 0
0.433333 -0.483333 0
0.433333 -0.5 0
0.45 -0.5 0
0.433333 -0.483333 0
0.45 -0.483333 0
0.45 -0.5 0
0.466667 -0.5 0
0.45 -0.483333 0
0.466667 -0.483333 0
0.466667 -0.5 0
0.483333 -0.5 0
0.466667 -0.483333 0
0.483333 -0.483333 0
0.483333 -0.5 0
0.5 -0.5 0
0.483333 -0.483333 0
0.5 -0.483333 0
0.5 -0.5 0
0.516667 -0.5 0
0.5 -0.483333 0
0.516667 -0.483333 0
0.516667 -0.5 0
0.533333 -0.5 0
0.516667 -0.483333 0
0.533333 -0.483333 0
0.533333 -0.5 0
0.55 -0.5 0
0.533333 -0.483333 0
0.55 -0.483333 0
0.55 -0.5 0
0.566667 -0.5 0
0.55 -0.483333 0
0.566667 -0.483333 0
0.566667 -0.5 0
0.583333 -0.5 0
0.566667 -0.483333 0
0.583333 -0.483333 0
0.583333 -0.5 0
0.6 -0.5 0
0.583333 -0.483333 0
0.6 -0.483333 0
0.6 -0.5 0
0.616667 -0.5 0
0.6 -0.483333 0
0.616667 -0.483333 0
0.616667 -0.5 0
0.633333 -0.5 0
0.616667 -0.483333 0
0.633333 -0.483333 0
0.633333 -0.5 0
0.65 -0.5 0
0.633333 -0.483333 0
0.65 -0.483333 0
0.65 -0.5 0
0.666667 -0.5 0
0.65 -0.483333 0
0.666667 -0.483333 0
0.666667 -0.5 0
0.683333 -0.5 0
0.666667 -0.483333 0
0.683333 -0.483333 0
0.683333 -0.5 0
0.7 -0.5 0
0.683333 -0.483333 0
0.7 -0.483333 0
0.7 -0.5 0
0.716667 -0.5 0
0.7 -0.483333 0
0.716667 -0.483333 0
0.716667 -0.5 0
0.733333 -0.5 0
0.716667 -0.483333 0
0.733333 -0.483333 0
0.733333 -0.5 0
0.75 -0.5 0
0.733333 -0.483333 0
0.75 -0.483333 0
0.75 -0.5 0
0.766667 -0.5 0
0.75 -0.483333 0
0.766667 -0.483333 0
0.766667 -0.5 0
0.783333 -0.5 0
0.766667 -0.483333 0
0.783333 -0.483333 0
0.783333 -0.5 0
0.8 -0.5 0
0.783333 -0.483333 0
0.8 -0.483333 0
0.8 -0.5 0
0.816667 -0.5 0
0.8 -0.483333 0
0.816667 -0.483333 0
0.816667 -0.5 0
0.833333 -0.5 0
0.816667 -0.483333 0
0.833333 -0.483333 0
0.833333 -0.5 0
0.85 -0.5 0
0.833333 -0.483333 0
0.85 -0.483333 0
0.85 -0.5 0
0.866667 -0.5 0
0.85 -0.483333 0
0.866667 -0.483333 0
0.866667 -0.5 0
0.883333 -0.5 0
0.866667 -0.483333 0
0.883333 -0.483333 0
0.883333 -0.5 0
0.9 -0.5 0
0.883333 -0.483333 0
0.9 -0.483333 0
0.9 -0.5 0
0.916667 -0.5 0
0.9 -0.483333 0
0.916667 -0.483333 0
0.916667 -0.5 0
0.933333 -0.5 0
0.916667 -0.483333 0
0.933333 -0.483333 0
0.933333 -0.5 0
0.95 -0.5 0
0.933333 -0.483333 0
0.95 -0.483333 0
0.95 -0.5 0
0.966667 -0.5 0
0.95 -0.483333 0
0.966667 -0.483333 0
0.966667 -0.5 0
0.983333 -0.5 0
0.966667 -0.483333 0
0.983333 -0.483333 0
0.983333 -0.5 0
1 -0.5 0
0.983333 -0.483333 0
1 -0.483333 0
1 -0.5 0
1.01667 -0.5 0
1 -0.483333 0
1.01667 -0.483333 0
1.01667 -0.5 0
1.03333 -0.5 0
1.01667 -0.483333 0
1.03333 -0.483333 0
1.03333 -0.5 0
1.05 -0.5 0
1.03333 -0.483333 0
1.05 -0.483333 0
1.05 -0.5 0
1.06667 -0.5 0
1.05 -0.483333 0
1.06667 -0.483333 0
1.06667 -0.5 0
1.08333 -0.5 0
1.06667 -0.483333 0
1.08333 -0.483333 0
1.08333 -0.5 0
1.1 -0.5 0
1.08333 -0.483333 0
1.1 -0.483333 0
1.1 -0.5 0
1.11667 -0.5 0
1.1 -0.483333 0
1.11667 -0.483333 0
1.11667 -0.5 0
1.13333 -0.5 0
1.11667 -0.483333 0
1.13333 -0.483333 0
1.13333 -0.5 0
1.15 -0.5 0
1.13333 -0.483333 0
1.15 -0.483333 0
1.15 -0.5 0
1.16667 -0.5 0
1.15 -0.483333 0
1.16667 -0.483333 0
1.16667 -0.5 0
1.18333 -0.5 0
1.16667 -0.483333 0
1.18333 -0.483333 0
1.18333 -0.5 0
1.2 -0.5 0
1.18333 -0.483333 0
1.2 -0.483333 0
1.2 -0.5 0
1.21667 -0.5 0
1.2 -0.483333 0
1.21667 -0.483333 0
1.21667 -0.5 0
1.23333 -0.5 0
1.21667 -0.483333 0
1.23333 -0.483333 0
1.23333 -0.5 0
1.25 -0.5 0
1.23333 -0.483333 0
1.25 -0.483333 0
1.25 -0.5 0
1.26667 -0.5 0
1.25 -0.483333 0
1.26667 -0.483333 0
1.26667 -0.5 0
1.28333 -0.5 0
1.26667 -0.483333 0
1.28333 -0.483333 0
1.28333 -0.5 0
1.3 -0.5 0
1.28333 -0.483333 0
1.3 -0.483333 0
1.3 -0.5 0
1.31667 -0.5 0
1.3 -0.483333 0
1.31667 -0.483333 0
1.31667 -0.5 0
1.33333 -0.5 0
1.31667 -0.483333 0
1.33333 -0.483333 0
1.33333 -0.5 0
1.35 -0.5 0
1.33333 -0.483333 0
1.35 -0.483333 0
1.35 -0.5 0
1.36667 -0.5 0
1.35 -0.483333 0
1.36667 -0.483333 0
1.36667 -0.5 0
1.38333 -0.5 0
1.36667 -0.483333 0
1.38333 -0.483333 0
1.38333 -0.5 0
1.4 -0.5 0
1.38333 -0.483333 0
1.4 -0.483333 0
1.4 -0.5 0
1.41667 -0.5 0
1.4 -0.483333 0
1.41667 -0.483333 0
1.41667 -0.5 0
1.43333 -0.5 0
1.41667 -0.483333 0
1.43333 -0.483333 0
1.43333 -0.5 0
1.45 -0.5 0
1.43333 -0.483333 0
1.45 -0.483333 0
1.45 -0.5 0
1.46667 -0.5 0
1.45 -0.483333 0
1.46667 -0.483333 0
1.46667 -0.5 0
1.48333 -0.5 0
1.46667 -0.483333 0
1.48333 -0.483333 0
1.48333 -0.5 0
1.5 -0.5 0
1.48333 -0.483333 0
1.5 -0.483333 0
1.5 -0.5 0
1.51667 -0.5 0
1.5 -0.483333 0
1.51667 -0.483333 0
1.51667 -0.5 0
1.53333 -0.5 0
1.51667 -0.483333 0
1.53333 -0.483333 0
1.53333 -0.5 0
1.55 -0.5 0
1.53333 -0.483333 0
1.55 -0.483333 0
1.55 -0.5 0
1.56667 -0.5 0
1.55 -0.483333 0
1.56667 -0.483333 0
1.56667 -0.5 0
1.58333 -0.5 0
1.56667 -0.483333 0
1.58333 -0.483333 0
1.58333 -0.5 0
1.6 -0.5 0
1.58333 -0.483333 0
1.6 -0.483333 0
1.6 -0.5 0
1.61667 -0.5 0
1.6 -0.483333 0
1.61667 -0.483333 0
1.61667 -0.5 0
1.63333 -0.5 0
1.61667 -0.483333 0
1.63333 -0.483333 0
1.63333 -0.5 0
1.65 -0.5 0
1.63333 -0.483333 0
1.65 -0.483333 0
1.65 -0.5 0
1.66667 -0.5 0
1.65 -0.483333 0
1.66667 -0.483333 0
1.66667 -0.5 0
1.68333 -0.5 0
1.66667 -0.483333 0
1.68333 -0.483333 0
1.68333 -0.5 0
1.7 -0.5 0
1.68333 -0.483333 0
1.7 -0.483333 0
1.7 -0.5 0
1.71667 -0.5 0
1.7 -0.483333 0
1.71667 -0.483333 0
1.71667 -0.5 0
1.73333 -0.5 0
1.71667 -0.483333 0
1.73333 -0.483333 0
1.73333 -0.5 0
1.75 -0.5 0
1.73333 -0.483333 0
1.75 -0.483333 0
1.75 -0.5 0
1.76667 -0.5 0
1.75 -0.483333 0
1.76667 -0.483333 0
1.76667 -0.5 0
1.78333 -0.5 0
1.76667 -0.483333 0
1.78333 -0.483333 0
1.78333 -0.5 0
1.8 -0.5 0
1.78333 -0.483333 0
1.8 -0.483333 0
1.8 -0.5 0
1.81667 -0.5 0
1.8 -0.483333 0
1.81667 -0.483333 0
1.81667 -0.5 0
1.83333 -0.5 0
1.81667 -0.483333 0
1.83333 -0.483333 0
1.83333 -0.5 0
1.85 -0.5 0
1.83333 -0.483333 0
1.85 -0.483333 0
1.85 -0.5 0
1.86667 -0.5 0
1.85 -0.483333 0
1.86667 -0.483333 0
1.86667 -0.5 0
1.88333 -0.5 0
1.86667 -0.483333 0
1.88333 -0.483333 0
1.88333 -0.5 0
1.9 -0.5 0
1.88333 -0.483333 0
1.9 -0.483333 0
1.9 -0.5 0
1.91667 -0.5 0
1.9 -0.483333 0
1.91667 -0.483333 0
1.91667 -0.5 0
1.93333 -0.5 0
1.91667 -0.483333 0
1.93333 -0.483333 0
1.93333 -0.5 0
1.95 -0.5 0
1.93333 -0.483333 0
1.95 -0.483333 0
1.95 -0.5 0
1.96667 -0.5 0
1.95 -0.483333 0
1.96667 -0.483333 0
1.96667 -0.5 0
1.98333 -0.5 0
1.96667 -0.483333 0
1.98333 -0.483333 0
1.98333 -0.5 0
2 -0.5 0
1.98333 -0.483333 0
2 -0.483333 0
0 -0.483333 0
0.0166667 -0.483333 0
0 -0.466667 0
0.0166667 -0.466667 0
0.0166667 -0.483333 0
0.0333333 -0.483333 0
0.0166667 -0.466667 0
0.0333333 -0.466667 0
0.0333333 -0.483333 0
0.05 -0.483333 0
0.0333333 -0.466667 0
0.05 -0.466667 0
0.05 -0.483333 0
0.0666667 -0.483333 0
0.05 -0.466667 0
0.0666667 -0.466667 0
0.0666667 -0.483333 0
0.0833333 -0.483333 0
0.0666667 -0.466667 0
0.0833333 -0.466667 0
0.0833333 -0.483333 0
0.1 -0.483333 0
0.0833333 -0.466667 0
0.1 -0.466667 0
0.1 -0.483333 0
0.116667 -0.483333 0
0.1 -0.466667 0
0.116667 -0.466667 0
0.116667 -0.483333 0
0.133333 -0.483333 0
0.116667 -0.466667 0
0.133333 -0.466667 0
0.133333 -0.483333 0
0.15 -0.483333 0
0.133333 -0.466667 0
0.15 -0.466667 0
0.15 -0.483333 0
0.166667 -0.483333 0
0.15 -0.466667 0
0.166667 -0.466667 0
0.166667 -0.483333 0
0.183333 -0.483333 0
0.166667 -0.466667 0
0.183333 -0.466667 0
0.183333 -0.483333 0
0.2 -0.483333 0
0.183333 -0.466667 0
0.2 -0.466667 0
0.2 -0.483333 0
0.216667 -0.483333 0
0.2 -0.466667 0
0.216667 -0.466667 0
0.216667 -0.483333 0
0.233333 -0.483333 0
0.216667 -0.466667 0
0.233333 -0.466667 0
0.233333 -0.483333 0
0.25 -0.483333 0
0.233333 -0.466667 0
0.25 -0.466667 0
0.25 -0.483333 0
0.266667 -0.483333 0
0.25 -0.466667 0
0.266667 -0.466667 0
0.266667 -0.483333 0
0.283333 -0.483333 0
0.266667 -0.466667 0
0.283333 -0.466667 0
0.283333 -0.483333 0
0.3 -0.483333 0
0.283333 -0.466667 0
0.3 -0.466667 0
0.3 -0.483333 0
0.316667 -0.483333 0
0.3 -0.466667 0
0.316667 -0.466667 0
0.316667 -0.483333 0
0.333333 -0.483333 0
0.316667 -0.466667 0
0.333333 -0.466667 0
0.333333 -0.483333 0
0.35 -0.483333 0
0.333333 -0.466667 0
0.35 -0.466667 0
0.35 -0.483333 0
0.366667 -0.483333 0
0.35 -0.466667 0
0.366667 -0.466667 0
0.366667 -0.483333 0
0.383333 -0.483333 0
0.366667 -0.466667 0
0.383333 -0.466667 0
0.383333 -0.483333 0
0.4 -0.483333 0
[...]
POINT_DATA 28800
SCALARS x1_displacement double 1
LOOKUP_TABLE default
0 -7.14939e-05 0 -2.61649e-05 -7.14939e-05 -0.000119191 -2.61649e-05 -5.52788e-05 -0.000119191 -0.000148234 -5.52788e-05 -7.46807e-05 -0.000148234 -0.000162302 -7.46807e-05 -8.41122e-05 -0.000162302 -0.000163013 -8.41122e-05 -8.44031e-05 -0.000163013 -0.000152109 -8.44031e-05 -7.65744e-05 -0.000152109 -0.000131211 -7.65744e-05 -6.15597e-05 -0.000131211 -0.000101743 -6.15597e-05 -4.01671e-05 -0.000101743 -6.48988e-05 -4.01671e-05 -1.30991e-05 -6.48988e-05 -2.16777e-05 -1.30991e-05 1.90279e-05 -2.16777e-05 2.70834e-05 1.90279e-05 5.56723e-05 2.70834e-05 8.06772e-05 5.56723e-05 9.63577e-05 8.06772e-05 0.0001385 9.63577e-05 0.000140662 0.0001385 0.000200034 0.000140662 0.000188208 0.000200034 0.000264833 0.000188208 0.000238659 0.000264833 0.000332508 0.000238659 0.000291708 0.000332508 0.000402707 0.000291708 0.00034707 0.000402707 0.000475089 0.00034707 0.000404461 0.000475089 0.000549293 0.000404461 0.00046358 0.000549293 0.000624892 0.00046358 0.000524079 0.000624892 0.000701353 0.000524079 0.000585542 0.000701353 0.000777996 0.000585542 0.00064746 0.000777996 0.000853959 0.00064746 0.000709217 0.000853959 0.000928203 0.000709217 0.000770085 0.000928203 0.000999575 0.000770085 0.000829245 0.000999575 0.00106703 0.000829245 0.000885825 0.00106703 0.00113018 0.000885825 0.000938975 0.00113018 0.0011903 0.000938975 0.000988044 0.0011903 0.00125163 0.000988044 0.00103315 0.00125163 0.00132172 0.00103315 0.00107596 0.00132172 0.00140919 0.00107596 0.00111921 0.00140919 0.00151899 0.00111921 0.00116473 0.00151899 0.00164965 0.00116473 0.00121205 0.00164965 0.00179495 0.00121205 0.00125942 0.00179495 0.00194771 0.00125942 0.00130599 0.00194771 0.00210278 0.00130599 0.0013514 0.00210278 0.00225716 0.0013514 0.00139581 0.00225716 0.00240943 0.00139581 0.00143933 0.00240943 0.00255895 0.00143933 0.00148202 0.00255895 0.00270547 0.00148202 0.00152394 0.00270547 0.00284889 0.00152394 0.00156512 0.00284889 0.00298918 0.00156512 0.00160556 0.00298918 0.00312633 0.00160556 0.00164526 0.00312633 0.00326033 0.00164526 0.00168422 0.00326033 0.00339117 0.00168422 0.00172244 0.00339117 0.00351887 0.00172244 0.00175992 0.00351887 0.00364341 0.00175992 0.00179667 0.00364341 0.0037648 0.00179667 0.00183268 0.0037648 0.00388303 0.00183268 0.00186795 0.00388303 0.00399811 0.00186795 0.00190248 0.00399811 0.00411003 0.00190248 0.00193627 0.00411003 0.0042188 0.00193627 0.00196933 0.0042188 0.00432442 0.00196933 0.00200164 0.00432442 0.00442688 0.00200164 0.00203322 0.00442688 0.00452619 0.00203322 0.00206407 0.00452619 0.00462235 0.00206407 0.00209417 0.00462235 0.00471535 0.00209417 0.00212354 0.00471535 0.00480519 0.00212354 0.00215216 0.00480519 0.00489189 0.00215216 0.00218005 0.00489189 0.00497543 0.00218005 0.00220721 0.00497543 0.00505581 0.00220721 0.00223362 0.00505581 0.00513305 0.00223362 0.0022593 0.00513305 0.00520713 0.0022593 0.00228423 0.00520713 0.00527805 0.00228423 0.00230844 0.00527805 0.00534582 0.00230844 0.0023319 0.00534582 0.00541044 0.0023319 0.00235462 0.00541044 0.0054719 0.00235462 0.00237661 0.0054719 0.00553021 0.00237661 0.00239786 0.00553021 0.00558536 0.00239786 0.00241837 0.00558536 0.00563736 0.00241837 0.00243814 0.00563736 0.0056862 0.00243814 0.00245717 0.0056862 0.00573189 0.00245717 0.00247546 0.00573189 0.00577442 0.00247546 0.00249302 0.00577442 0.00581379 0.00249302 0.00250984 0.00581379 0.00585001 0.00250984 0.00252592 0.00585001 0.00588306 0.00252592 0.00254126 0.00588306 0.00591297 0.00254126 0.00255586 0.00591297 0.00593971 0.00255586 0.00256972 0.00593971 0.00596329 0.00256972 0.00258284 0.00596329 0.00598372 0.00258284 0.00259523 0.00598372 0.00600098 0.00259523 0.00260687 0.00600098 0.00601509 0.00260687 0.00261778 0.00601509 0.00602603 0.00261778 0.00262794 0.00602603 0.00603381 0.00262794 0.00263737 0.00603381 0.00603843 0.00263737 0.00264605 0.00603843 0.00603989 0.00264605 0.002654 0.00603989 0.00603818 0.002654 0.0026612 0.00603818 0.00603331 0.0026612 0.00266767 0.00603331 0.00602528 0.00266767 0.00267339 0.00602528 0.00601409 0.00267339 0.00267838 0.00601409 0.00599973 0.00267838 0.00268262 0.00599973 0.0059822 0.00268262 0.00268613 0.0059822 0.00596151 0.00268613 0.00268889 0.00596151 0.00593765 0.00268889 0.00269092 0.00593765 0.00591063 0.00269092 0.0026922 0.00591063 0.00588044 0.0026922 0.00269274 0.00588044 0.00584709 0.00269274 0.00269254 0.00584709 0.00581056 0.00269254 0.0026916 0.00581056 0.00577087 0.0026916 0.00268992 0.00577087 0.00572801 0.00268992 0.00268749 0.00572801 0.00568198 0.00268749 0.00268433 0.00568198 0.00563279 0.00268433 0.00268043 0.00563279 0.00558043 0.00268043 0.00267578 0.00558043 0.00552489 0.00267578 0.00267039 0.00552489 0.00546619 0.00267039 0.00266426 0.00546619 0.00540432 0.00266426 0.00265739 0.00540432 0.00533928 0.00265739 0.00264978 0.00533928 0.00527108 0.00264978 0.00264142 0.00527108 0.00519972 0.00264142 0.00263233 0.00519972 0.0051252 0.00263233 0.00262249 0.0051252 0.00504756 0.00262249 0.00261194 0.00504756 0.00496686 0.00261194 0.00260059 0.00496686 0.00488401 0.00260059 0.00258772 0.00488401 0.00480292 0.00258772 0.00257198 0.00480292 0.00473116 0.00257198 0.00255512 0.00473116 0.00467682 0.00255512 0.00254102 0.00467682 0.0046426 0.00254102 0.00253172 0.0046426 0.00462527 0.00253172 0.00252636 0.00462527 0.00461922 0.00252636 0.00252419 0.00461922 0.00461835 0.00252419 0.00252443 0 -2.61649e-05 0 -9.92808e-06 -2.61649e-05 -5.52788e-05 -9.92808e-06 -1.92505e-05 -5.52788e-05 -7.46807e-05 -1.92505e-05 -2.63779e-05 -7.46807e-05 -8.41122e-05 -2.63779e-05 -2.86304e-05 -8.41122e-05 -8.44031e-05 -2.86304e-05 -2.60834e-05 -8.44031e-05 -7.65744e-05 -2.60834e-05 -1.91019e-05 -7.65744e-05 -6.15597e-05 -1.91019e-05 -7.96149e-06 -6.15597e-05 -4.01671e-05 -7.96149e-06 7.13449e-06 -4.01671e-05 -1.30991e-05 7.13449e-06 2.59911e-05 -1.30991e-05 1.90279e-05 2.59911e-05 4.83958e-05 1.90279e-05 5.56723e-05 4.83958e-05 7.41279e-05 5.56723e-05 9.63577e-05 7.41279e-05 0.000102969 9.63577e-05 0.000140662 0.000102969 0.000134701 0.000140662 0.000188208 0.000134701 0.000169107 0.000188208 0.000238659 0.000169107 0.000205981 0.000238659 0.000291708 0.000205981 0.000245133 0.000291708 0.00034707 0.000245133 0.000286384 0.00034707 0.000404461 0.000286384 0.000329561 0.000404461 0.00046358 0.000329561 0.000374483 0.00046358 0.000524079 0.000374483 0.000420946 0.000524079 0.000585542 0.000420946 0.000468701 0.000585542 0.00064746 0.000468701 0.000517442 0.00064746 0.000709217 0.000517442 0.000566777 0.000709217 0.000770085 0.000566777 0.00061619 0.000770085 0.000829245 0.00061619 0.000664964 0.000829245 0.000885825 0.000664964 0.00071201 0.000885825 0.000938975 0.00071201 0.000755546 0.000938975 0.000988044 0.000755546 0.00079262 0.000988044 0.00103315 0.00079262 0.000819098 0.00103315 0.00107596 0.000819098 0.000831832 0.00107596 0.00111921 0.000831832 0.000830195 0.00111921 0.00116473 0.000830195 0.00081096 0.00116473 0.00121205 0.00081096 0.000773888 0.00121205 0.00125942 0.000773888 0.000724151 0.00125942 0.00130599 0.000724151 0.000664925 0.00130599 0.0013514 0.000664925 0.000601305 0.0013514 0.00139581 0.000601305 0.000536128 0.00139581 0.00143933 0.000536128 0.000470963 0.00143933 0.00148202 0.000470963 0.000406881 0.00148202 0.00152394 0.000406881 0.00034424 0.00152394 0.00156512 0.00034424 0.000283184 0.00156512 0.00160556 0.000283184 0.000223771 0.00160556 0.00164526 0.000223771 0.000166021 0.00164526 0.00168422 0.000166021 0.000109943 0.00168422 0.00172244 0.000109943 5.55399e-05 0.00172244 0.00175992 5.55399e-05 2.81397e-06 0.00175992 0.00179667 2.81397e-06 -4.82345e-05 0.00179667 0.00183268 -4.82345e-05 -9.76054e-05 0.00183268 0.00186795 -9.76054e-05 -0.000145298 0.00186795 0.00190248 -0.000145298 -0.000191313 0.00190248 0.00193627 -0.000191313 -0.00023565 0.00193627 0.00196933 -0.00023565 -0.000278309 0.00196933 0.00200164 -0.000278309 -0.00031929 0.00200164 0.00203322 -0.00031929 -0.000358594 0.00203322 0.00206407 -0.000358594 -0.000396219 0.00206407 0.00209417 -0.000396219 -0.000432166 0.00209417 0.00212354 -0.000432166 -0.000466435 0.00212354 0.00215216 -0.000466435 -0.000499027 0.00215216 0.00218005 -0.000499027 -0.000529941 0.00218005 0.00220721 -0.000529941 -0.000559176 0.00220721 0.00223362 -0.000559176 -0.000586734 0.00223362 0.0022593 -0.000586734 -0.000612614 0.0022593 0.00228423 -0.000612614 -0.000636816 0.00228423 0.00230844 -0.000636816 -0.000659341 0.00230844 0.0023319 -0.000659341 -0.000680187 0.0023319 0.00235462 -0.000680187 -0.000699355 0.00235462 0.00237661 -0.000699355 -0.000716845 0.00237661 0.00239786 -0.000716845 -0.000732656 0.00239786 0.00241837 -0.000732656 -0.000746789 0.00241837 0.00243814 -0.000746789 -0.000759244 0.00243814 0.00245717 -0.000759244 -0.00077002 0.00245717 0.00247546 -0.00077002 -0.000779116 0.00247546 0.00249302 -0.000779116 -0.000786534 0.00249302 0.00250984 -0.000786534 -0.000792272 0.00250984 0.00252592 -0.000792272 -0.00079633 0.00252592 0.00254126 -0.00079633 -0.000798709 0.00254126 0.00255586 -0.000798709 -0.000799408 0.00255586 0.00256972 -0.000799408 -0.000798426 0.00256972 0.00258284 -0.000798426 -0.000795763 0.00258284 0.00259523 -0.000795763 -0.00079142 0.00259523 0.00260687 -0.00079142 -0.000785396 0.00260687 0.00261778 -0.000785396 -0.00077769 0.00261778 0.00262794 -0.00077769 -0.000768302 0.00262794 0.00263737 -0.000768302 -0.000757233 0.00263737 0.00264605 -0.000757233 -0.000744481 0.00264605 0.002654 -0.000744481 -0.000730047 0.002654 0.0026612 -0.000730047 -0.000713931 0.0026612 0.00266767 -0.000713931 -0.000696131 0.00266767 0.00267339 -0.000696131 -0.000676648 0.00267339 0.00267838 -0.000676648 -0.000655481 0.00267838 0.00268262 -0.000655481 -0.000632631 0.00268262 0.00268613 -0.000632631 -0.000608097 0.00268613 0.00268889 -0.000608097 -0.000581879 0.00268889 0.00269092 -0.000581879 -0.000553976 0.00269092 0.0026922 -0.000553976 -0.000524389 0.0026922 0.00269274 -0.000524389 -0.000493117 0.00269274 0.00269254 -0.000493117 -0.00046016 0.00269254 0.0026916 -0.00046016 -0.000425517 0.0026916 0.00268992 -0.000425517 -0.000389189 0.00268992 0.00268749 -0.000389189 -0.000351176 0.00268749 0.00268433 -0.000351176 -0.000311476 0.00268433 0.00268043 -0.000311476 -0.000270091 0.00268043 0.00267578 -0.000270091 -0.00022702 0.00267578 0.00267039 -0.00022702 -0.000182263 0.00267039 0.00266426 -0.000182263 -0.00013582 0.00266426 0.00265739 -0.00013582 -8.76915e-05 0.00265739 0.00264978 -8.76915e-05 -3.78794e-05 0.00264978 0.00264142 -3.78794e-05 1.36124e-05 0.00264142 0.00263233 1.36124e-05 6.67748e-05 0.00263233 0.00262249 6.67748e-05 0.000121585 0.00262249 0.00261194 0.000121585 0.000177971 0.00261194 0.00260059 0.000177971 0.000235642 0.00260059 0.00258772 0.000235642 0.000293244 0.00258772 0.00257198 0.000293244 0.000344647 0.00257198 0.00255512 0.000344647 0.000378537 0.00255512 0.00254102 0.000378537 0.000398455 0.00254102 0.00253172 0.000398455 0.000411429 0.00253172 0.00252636 0.000411429 0.000419196 0.00252636 0.00252419 0.000419196 0.000423726 0.00252419 0.00252443 0.000423726 0.000427465 0 -9.92808e-06 0 1.90109e-06 -9.92808e-06 -1.92505e-05 1.90109e-06 5.02302e-06 -1.92505e-05 -2.63779e-05 5.02302e-06 9.67698e-06 -2.63779e-05 -2.86304e-05 9.67698e-06 1.49591e-05 -2.86304e-05 -2.60834e-05 1.49591e-05 2.07323e-05 -2.60834e-05 -1.91019e-05 2.07323e-05 2.73017e-05 -1.91019e-05 -7.96149e-06 2.73017e-05 3.50853e-05 -7.96149e-06 7.13449e-06 3.50853e-05 4.44733e-05 7.13449e-06 2.59911e-05 4.44733e-05 5.57522e-05 2.59911e-05 4.83958e-05 5.57522e-05 6.90734e-05 4.83958e-05 7.41279e-05 6.90734e-05 8.45115e-05 7.41279e-05 0.000102969 8.45115e-05 0.000102107 0.000102969 0.000134701 0.000102107 0.000121849 0.000134701 0.000169107 0.000121849 0.000143674 0.000169107 0.000205981 0.000143674 0.000167509 0.000205981 0.000245133 0.000167509 0.000193292 0.000245133 0.000286384 0.000193292 0.000220976 0.000286384 0.000329561 0.000220976 0.000250521 0.000329561 0.000374483 0.000250521 0.000281897 0.000374483 0.000420946 0.000281897 0.000315067 0.000420946 0.000468701 0.000315067 0.000349976 0.000468701 0.000517442 0.000349976 0.000386525 0.000517442 0.000566777 0.000386525 0.000424546 0.000566777 0.00061619 0.000424546 0.000463741 0.00061619 0.000664964 0.000463741 0.000503568 0.000664964 0.00071201 0.000503568 0.000543031 0.00071201 0.000755546 0.000543031 0.000580323 0.000755546 0.00079262 0.000580323 0.000612172 0.00079262 0.000819098 0.000612172 0.000632758 0.000819098 0.000831832 0.000632758 0.000633683 0.000831832 0.000830195 0.000633683 0.000600728 0.000830195 0.00081096 0.000600728 0.000506567 0.00081096 0.000773888 0.000506567 0.000367099 0.000773888 0.000724151 0.000367099 0.000202817 0.000724151 0.000664925 0.000202817 3.13999e-05 0.000664925 0.000601305 3.13999e-05 -0.000143992 0.000601305 0.000536128 -0.000143992 -0.000321558 0.000536128 0.000470963 -0.000321558 -0.000496385 0.000470963 0.000406881 -0.000496385 -0.000667628 0.000406881 0.00034424 -0.000667628 -0.000834987 0.00034424 0.000283184 -0.000834987 -0.000998334 0.000283184 0.000223771 -0.000998334 -0.00115762 0.000223771 0.000166021 -0.00115762 -0.00131283 0.000166021 0.000109943 -0.00131283 -0.00146395 0.000109943 5.55399e-05 -0.00146395 -0.00161098 5.55399e-05 2.81397e-06 -0.00161098 -0.00175391 2.81397e-06 -4.82345e-05 -0.00175391 -0.00189276 -4.82345e-05 -9.76054e-05 -0.00189276 -0.00202751 -9.76054e-05 -0.000145298 -0.00202751 -0.00215816 -0.000145298 -0.000191313 -0.00215816 -0.00228472 -0.000191313 -0.00023565 -0.00228472 -0.00240719 -0.00023565 -0.000278309 -0.00240719 -0.00252556 -0.000278309 -0.00031929 -0.00252556 -0.00263985 -0.00031929 -0.000358594 -0.00263985 -0.00275003 -0.000358594 -0.000396219 -0.00275003 -0.00285612 -0.000396219 -0.000432166 -0.00285612 -0.00295812 -0.000432166 -0.000466435 -0.00295812 -0.00305603 -0.000466435 -0.000499027 -0.00305603 -0.00314984 -0.000499027 -0.000529941 -0.00314984 -0.00323955 -0.000529941 -0.000559176 -0.00323955 -0.00332518 -0.000559176 -0.000586734 -0.00332518 -0.00340671 -0.000586734 -0.000612614 -0.00340671 -0.00348414 -0.000612614 -0.000636816 -0.00348414 -0.00355749 -0.000636816 -0.000659341 -0.00355749 -0.00362674 -0.000659341 -0.000680187 -0.00362674 -0.00369189 -0.000680187 -0.000699355 -0.00369189 -0.00375295 -0.000699355 -0.000716845 -0.00375295 -0.00380992 -0.000716845 -0.000732656 -0.00380992 -0.00386279 -0.000732656 -0.000746789 -0.00386279 -0.00391156 -0.000746789 -0.000759244 -0.00391156 -0.00395624 -0.000759244 -0.00077002 -0.00395624 -0.00399683 -0.00077002 -0.000779116 -0.00399683 -0.00403332 -0.000779116 -0.000786534 -0.00403332 -0.00406571 -0.000786534 -0.000792272 -0.00406571 -0.004094 -0.000792272 -0.00079633 -0.004094 -0.0041182 -0.00079633 -0.000798709 -0.0041182 -0.00413829 -0.000798709 -0.000799408 -0.00413829 -0.00415429 -0.000799408 -0.000798426 -0.00415429 -0.00416619 -0.000798426 -0.000795763 -0.00416619 -0.00417399 -0.000795763 -0.00079142 -0.00417399 -0.00417769 -0.00079142 -0.000785396 -0.00417769 -0.00417728 -0.000785396 -0.00077769 -0.00417728 -0.00417277 -0.00077769 -0.000768302 -0.00417277 -0.00416416 -0.000768302 -0.000757233 -0.00416416 -0.00415145 -0.000757233 -0.000744481 -0.00415145 -0.00413463 -0.000744481 -0.000730047 -0.00413463 -0.00411371 -0.000730047 -0.000713931 -0.00411371 -0.00408868 -0.000713931 -0.000696131 -0.00408868 -0.00405955 -0.000696131 -0.000676648 -0.00405955 -0.00402631 -0.000676648 -0.000655481 -0.00402631 -0.00398896 -0.000655481 -0.000632631 -0.00398896 -0.00394751 -0.000632631 -0.000608097 -0.00394751 -0.00390194 -0.000608097 -0.000581879 -0.00390194 -0.00385227 -0.000581879 -0.000553976 -0.00385227 -0.00379849 -0.000553976 -0.000524389 -0.00379849 -0.00374059 -0.000524389 -0.000493117 -0.00374059 -0.00367859 -0.000493117 -0.00046016 -0.00367859 -0.00361248 -0.00046016 -0.000425517 -0.00361248 -0.00354225 -0.000425517 -0.000389189 -0.00354225 -0.00346791 -0.000389189 -0.000351176 -0.00346791 -0.00338946 -0.000351176 -0.000311476 -0.00338946 -0.0033069 -0.000311476 -0.000270091 -0.0033069 -0.00322023 -0.000270091 -0.00022702 -0.00322023 -0.00312944 -0.00022702 -0.000182263 -0.00312944 -0.00303454 -0.000182263 -0.00013582 -0.00303454 -0.00293552 -0.00013582 -8.76915e-05 -0.00293552 -0.00283239 -8.76915e-05 -3.78794e-05 -0.00283239 -0.00272515 -3.78794e-05 1.36124e-05 -0.00272515 -0.0026138 1.36124e-05 6.67748e-05 -0.0026138 -0.00249835 6.67748e-05 0.000121585 -0.00249835 -0.00237886 0.000121585 0.000177971 -0.00237886 -0.00225542 0.000177971 0.000235642 -0.00225542 -0.00212824 0.000235642 0.000293244 -0.00212824 -0.00199681 0.000293244 0.000344647 -0.00199681 -0.00186113 0.000344647 0.000378537 -0.00186113 -0.0017527 0.000378537 0.000398455 -0.0017527 -0.00171436 0.000398455 0.000411429 -0.00171436 -0.00169341 0.000411429 0.000419196 -0.00169341 -0.00168042 0.000419196 0.000423726 -0.00168042 -0.00167267 0.000423726 0.000427465 -0.00167267 -0.00166656 0 1.90109e-06 0 1.4648e-05 1.90109e-06 5.02302e-06 1.4648e-05 3.14766e-05 5.02302e-06 9.67698e-06 3.14766e-05 4.66072e-05 9.67698e-06 1.49591e-05 4.66072e-05 5.7355e-05 1.49591e-05 2.07323e-05 5.7355e-05 6.45227e-05 2.07323e-05 2.73017e-05 6.45227e-05 6.94039e-05 2.73017e-05 3.50853e-05 6.94039e-05 7.29459e-05 3.50853e-05 4.44733e-05 7.29459e-05 7.60955e-05 4.44733e-05 5.57522e-05 7.60955e-05 7.95747e-05 5.57522e-05 6.90734e-05 7.95747e-05 8.37488e-05 6.90734e-05 8.45115e-05 8.37488e-05 8.89225e-05 8.45115e-05 0.000102107 8.89225e-05 9.54065e-05 0.000102107 0.000121849 9.54065e-05 0.000103378 0.000121849 0.000143674 0.000103378 0.000112881 0.000143674 0.000167509 0.000112881 0.000123951 0.000167509 0.000193292 0.000123951 0.000136665 0.000193292 0.000220976 0.000136665 0.000151105 0.000220976 0.000250521 0.000151105 0.000167362 0.000250521 0.000281897 0.000167362 0.00018556 0.000281897 0.000315067 0.00018556 0.000205839 0.000315067 0.000349976 0.000205839 0.000228333 0.000349976 0.000386525 0.000228333 0.000253151 0.000386525 0.000424546 0.000253151 0.00028036 0.000424546 0.000463741 0.00028036 0.000309936 0.000463741 0.000503568 0.000309936 0.000341685 0.000503568 0.000543031 0.000341685 0.000375145 0.000543031 0.000580323 0.000375145 0.000409533 0.000580323 0.000612172 0.000409533 0.00044387 0.000612172 0.000632758 0.00044387 0.000477646 0.000632758 0.000633683 0.000477646 0.000513215 0.000633683 0.000600728 0.000513215 0.000559351 0.000600728 0.000506567 0.000559351 0.000610354 0.000506567 0.000367099 0.000610354 0.00061673 0.000367099 0.000202817 0.00061673 0.000486254 0.000202817 3.13999e-05 0.000486254 -1.22751e-05 3.13999e-05 -0.000143992 -1.22751e-05 -0.000636069 -0.000143992 -0.000321558 -0.000636069 -0.00107838 -0.000321558 -0.000496385 -0.00107838 -0.00142121 -0.000496385 -0.000667628 -0.00142121 -0.00172226 -0.000667628 -0.000834987 -0.00172226 -0.00200311 -0.000834987 -0.000998334 -0.00200311 -0.00227215 -0.000998334 -0.00115762 -0.00227215 -0.00253262 -0.00115762 -0.00131283 -0.00253262 -0.00278579 -0.00131283 -0.00146395 -0.00278579 -0.00303215 -0.00146395 -0.00161098 -0.00303215 -0.00327187 -0.00161098 -0.00175391 -0.00327187 -0.00350505 -0.00175391 -0.00189276 -0.00350505 -0.0037317 -0.00189276 -0.00202751 -0.0037317 -0.00395183 -0.00202751 -0.00215816 -0.00395183 -0.00416544 -0.00215816 -0.00228472 -0.00416544 -0.00437255 -0.00228472 -0.00240719 -0.00437255 -0.00457315 -0.00240719 -0.00252556 -0.00457315 -0.00476724 -0.00252556 -0.00263985 -0.00476724 -0.00495481 -0.00263985 -0.00275003 -0.00495481 -0.00513588 -0.00275003 -0.00285612 -0.00513588 -0.00531044 -0.00285612 -0.00295812 -0.00531044 -0.00547849 -0.00295812 -0.00305603 -0.00547849 -0.00564003 -0.00305603 -0.00314984 -0.00564003 -0.00579506 -0.00314984 -0.00323955 -0.00579506 -0.00594358 -0.00323955 -0.00332518 -0.00594358 -0.0060856 -0.00332518 -0.00340671 -0.0060856 -0.0062211 -0.00340671 -0.00348414 -0.0062211 -0.00635009 -0.00348414 -0.00355749 -0.00635009 -0.00647257 -0.00355749 -0.00362674 -0.00647257 -0.00658854 -0.003