# vtk DataFile Version 3.0
#This file was generated by the deal.II library on 2021/2/12 at 0:08:49
ASCII
DATASET UNSTRUCTURED_GRID

POINTS 28800 double
0 -0.5 0
0.0166667 -0.5 0
0 -0.483333 0
0.0166667 -0.483333 0
0.0166667 -0.5 0
0.0333333 -0.5 0
0.0166667 -0.483333 0
0.0333333 -0.483333 0
0.0333333 -0.5 0
0.05 -0.5 0
0.0333333 -0.483333 0
0.05 -0.483333 0
0.05 -0.5 0
0.0666667 -0.5 0
0.05 -0.483333 0
0.0666667 -0.483333 0
0.0666667 -0.5 0
0.0833333 -0.5 0
0.0666667 -0.483333 0
0.0833333 -0.483333 0
0.0833333 -0.5 0
0.1 -0.5 0
0.0833333 -0.483333 0
0.1 -0.483333 0
0.1 -0.5 0
0.116667 -0.5 0
0.1 -0.483333 0
0.116667 -0.483333 0
0.116667 -0.5 0
0.133333 -0.5 0
0.116667 -0.483333 0
0.133333 -0.483333 0
0.133333 -0.5 0
0.15 -0.5 0
0.133333 -0.483333 0
0.15 -0.483333 0
0.15 -0.5 0
0.166667 -0.5 0
0.15 -0.483333 0
0.166667 -0.483333 0
0.166667 -0.5 0
0.183333 -0.5 0
0.166667 -0.483333 0
0.183333 -0.483333 0
0.183333 -0.5 0
0.2 -0.5 0
0.183333 -0.483333 0
0.2 -0.483333 0
0.2 -0.5 0
0.216667 -0.5 0
0.2 -0.483333 0
0.216667 -0.483333 0
0.216667 -0.5 0
0.233333 -0.5 0
0.216667 -0.483333 0
0.233333 -0.483333 0
0.233333 -0.5 0
0.25 -0.5 0
0.233333 -0.483333 0
0.25 -0.483333 0
0.25 -0.5 0
0.266667 -0.5 0
0.25 -0.483333 0
0.266667 -0.483333 0
0.266667 -0.5 0
0.283333 -0.5 0
0.266667 -0.483333 0
0.283333 -0.483333 0
0.283333 -0.5 0
0.3 -0.5 0
0.283333 -0.483333 0
0.3 -0.483333 0
0.3 -0.5 0
0.316667 -0.5 0
0.3 -0.483333 0
0.316667 -0.483333 0
0.316667 -0.5 0
0.333333 -0.5 0
0.316667 -0.483333 0
0.333333 -0.483333 0
0.333333 -0.5 0
0.35 -0.5 0
0.333333 -0.483333 0
0.35 -0.483333 0
0.35 -0.5 0
0.366667 -0.5 0
0.35 -0.483333 0
0.366667 -0.483333 0
0.366667 -0.5 0
0.383333 -0.5 0
0.366667 -0.483333 0
0.383333 -0.483333 0
0.383333 -0.5 0
0.4 -0.5 0
0.383333 -0.483333 0
0.4 -0.483333 0
0.4 -0.5 0
0.416667 -0.5 0
0.4 -0.483333 0
0.416667 -0.483333 0
0.416667 -0.5 0
0.433333 -0.5 0
0.416667 -0.483333 0
0.433333 -0.483333 0
0.433333 -0.5 0
0.45 -0.5 0
0.433333 -0.483333 0
0.45 -0.483333 0
0.45 -0.5 0
0.466667 -0.5 0
0.45 -0.483333 0
0.466667 -0.483333 0
0.466667 -0.5 0
0.483333 -0.5 0
0.466667 -0.483333 0
0.483333 -0.483333 0
0.483333 -0.5 0
0.5 -0.5 0
0.483333 -0.483333 0
0.5 -0.483333 0
0.5 -0.5 0
0.516667 -0.5 0
0.5 -0.483333 0
0.516667 -0.483333 0
0.516667 -0.5 0
0.533333 -0.5 0
0.516667 -0.483333 0
0.533333 -0.483333 0
0.533333 -0.5 0
0.55 -0.5 0
0.533333 -0.483333 0
0.55 -0.483333 0
0.55 -0.5 0
0.566667 -0.5 0
0.55 -0.483333 0
0.566667 -0.483333 0
0.566667 -0.5 0
0.583333 -0.5 0
0.566667 -0.483333 0
0.583333 -0.483333 0
0.583333 -0.5 0
0.6 -0.5 0
0.583333 -0.483333 0
0.6 -0.483333 0
0.6 -0.5 0
0.616667 -0.5 0
0.6 -0.483333 0
0.616667 -0.483333 0
0.616667 -0.5 0
0.633333 -0.5 0
0.616667 -0.483333 0
0.633333 -0.483333 0
0.633333 -0.5 0
0.65 -0.5 0
0.633333 -0.483333 0
0.65 -0.483333 0
0.65 -0.5 0
0.666667 -0.5 0
0.65 -0.483333 0
0.666667 -0.483333 0
0.666667 -0.5 0
0.683333 -0.5 0
0.666667 -0.483333 0
0.683333 -0.483333 0
0.683333 -0.5 0
0.7 -0.5 0
0.683333 -0.483333 0
0.7 -0.483333 0
0.7 -0.5 0
0.716667 -0.5 0
0.7 -0.483333 0
0.716667 -0.483333 0
0.716667 -0.5 0
0.733333 -0.5 0
0.716667 -0.483333 0
0.733333 -0.483333 0
0.733333 -0.5 0
0.75 -0.5 0
0.733333 -0.483333 0
0.75 -0.483333 0
0.75 -0.5 0
0.766667 -0.5 0
0.75 -0.483333 0
0.766667 -0.483333 0
0.766667 -0.5 0
0.783333 -0.5 0
0.766667 -0.483333 0
0.783333 -0.483333 0
0.783333 -0.5 0
0.8 -0.5 0
0.783333 -0.483333 0
0.8 -0.483333 0
0.8 -0.5 0
0.816667 -0.5 0
0.8 -0.483333 0
0.816667 -0.483333 0
0.816667 -0.5 0
0.833333 -0.5 0
0.816667 -0.483333 0
0.833333 -0.483333 0
0.833333 -0.5 0
0.85 -0.5 0
0.833333 -0.483333 0
0.85 -0.483333 0
0.85 -0.5 0
0.866667 -0.5 0
0.85 -0.483333 0
0.866667 -0.483333 0
0.866667 -0.5 0
0.883333 -0.5 0
0.866667 -0.483333 0
0.883333 -0.483333 0
0.883333 -0.5 0
0.9 -0.5 0
0.883333 -0.483333 0
0.9 -0.483333 0
0.9 -0.5 0
0.916667 -0.5 0
0.9 -0.483333 0
0.916667 -0.483333 0
0.916667 -0.5 0
0.933333 -0.5 0
0.916667 -0.483333 0
0.933333 -0.483333 0
0.933333 -0.5 0
0.95 -0.5 0
0.933333 -0.483333 0
0.95 -0.483333 0
0.95 -0.5 0
0.966667 -0.5 0
0.95 -0.483333 0
0.966667 -0.483333 0
0.966667 -0.5 0
0.983333 -0.5 0
0.966667 -0.483333 0
0.983333 -0.483333 0
0.983333 -0.5 0
1 -0.5 0
0.983333 -0.483333 0
1 -0.483333 0
1 -0.5 0
1.01667 -0.5 0
1 -0.483333 0
1.01667 -0.483333 0
1.01667 -0.5 0
1.03333 -0.5 0
1.01667 -0.483333 0
1.03333 -0.483333 0
1.03333 -0.5 0
1.05 -0.5 0
1.03333 -0.483333 0
1.05 -0.483333 0
1.05 -0.5 0
1.06667 -0.5 0
1.05 -0.483333 0
1.06667 -0.483333 0
1.06667 -0.5 0
1.08333 -0.5 0
1.06667 -0.483333 0
1.08333 -0.483333 0
1.08333 -0.5 0
1.1 -0.5 0
1.08333 -0.483333 0
1.1 -0.483333 0
1.1 -0.5 0
1.11667 -0.5 0
1.1 -0.483333 0
1.11667 -0.483333 0
1.11667 -0.5 0
1.13333 -0.5 0
1.11667 -0.483333 0
1.13333 -0.483333 0
1.13333 -0.5 0
1.15 -0.5 0
1.13333 -0.483333 0
1.15 -0.483333 0
1.15 -0.5 0
1.16667 -0.5 0
1.15 -0.483333 0
1.16667 -0.483333 0
1.16667 -0.5 0
1.18333 -0.5 0
1.16667 -0.483333 0
1.18333 -0.483333 0
1.18333 -0.5 0
1.2 -0.5 0
1.18333 -0.483333 0
1.2 -0.483333 0
1.2 -0.5 0
1.21667 -0.5 0
1.2 -0.483333 0
1.21667 -0.483333 0
1.21667 -0.5 0
1.23333 -0.5 0
1.21667 -0.483333 0
1.23333 -0.483333 0
1.23333 -0.5 0
1.25 -0.5 0
1.23333 -0.483333 0
1.25 -0.483333 0
1.25 -0.5 0
1.26667 -0.5 0
1.25 -0.483333 0
1.26667 -0.483333 0
1.26667 -0.5 0
1.28333 -0.5 0
1.26667 -0.483333 0
1.28333 -0.483333 0
1.28333 -0.5 0
1.3 -0.5 0
1.28333 -0.483333 0
1.3 -0.483333 0
1.3 -0.5 0
1.31667 -0.5 0
1.3 -0.483333 0
1.31667 -0.483333 0
1.31667 -0.5 0
1.33333 -0.5 0
1.31667 -0.483333 0
1.33333 -0.483333 0
1.33333 -0.5 0
1.35 -0.5 0
1.33333 -0.483333 0
1.35 -0.483333 0
1.35 -0.5 0
1.36667 -0.5 0
1.35 -0.483333 0
1.36667 -0.483333 0
1.36667 -0.5 0
1.38333 -0.5 0
1.36667 -0.483333 0
1.38333 -0.483333 0
1.38333 -0.5 0
1.4 -0.5 0
1.38333 -0.483333 0
1.4 -0.483333 0
1.4 -0.5 0
1.41667 -0.5 0
1.4 -0.483333 0
1.41667 -0.483333 0
1.41667 -0.5 0
1.43333 -0.5 0
1.41667 -0.483333 0
1.43333 -0.483333 0
1.43333 -0.5 0
1.45 -0.5 0
1.43333 -0.483333 0
1.45 -0.483333 0
1.45 -0.5 0
1.46667 -0.5 0
1.45 -0.483333 0
1.46667 -0.483333 0
1.46667 -0.5 0
1.48333 -0.5 0
1.46667 -0.483333 0
1.48333 -0.483333 0
1.48333 -0.5 0
1.5 -0.5 0
1.48333 -0.483333 0
1.5 -0.483333 0
1.5 -0.5 0
1.51667 -0.5 0
1.5 -0.483333 0
1.51667 -0.483333 0
1.51667 -0.5 0
1.53333 -0.5 0
1.51667 -0.483333 0
1.53333 -0.483333 0
1.53333 -0.5 0
1.55 -0.5 0
1.53333 -0.483333 0
1.55 -0.483333 0
1.55 -0.5 0
1.56667 -0.5 0
1.55 -0.483333 0
1.56667 -0.483333 0
1.56667 -0.5 0
1.58333 -0.5 0
1.56667 -0.483333 0
1.58333 -0.483333 0
1.58333 -0.5 0
1.6 -0.5 0
1.58333 -0.483333 0
1.6 -0.483333 0
1.6 -0.5 0
1.61667 -0.5 0
1.6 -0.483333 0
1.61667 -0.483333 0
1.61667 -0.5 0
1.63333 -0.5 0
1.61667 -0.483333 0
1.63333 -0.483333 0
1.63333 -0.5 0
1.65 -0.5 0
1.63333 -0.483333 0
1.65 -0.483333 0
1.65 -0.5 0
1.66667 -0.5 0
1.65 -0.483333 0
1.66667 -0.483333 0
1.66667 -0.5 0
1.68333 -0.5 0
1.66667 -0.483333 0
1.68333 -0.483333 0
1.68333 -0.5 0
1.7 -0.5 0
1.68333 -0.483333 0
1.7 -0.483333 0
1.7 -0.5 0
1.71667 -0.5 0
1.7 -0.483333 0
1.71667 -0.483333 0
1.71667 -0.5 0
1.73333 -0.5 0
1.71667 -0.483333 0
1.73333 -0.483333 0
1.73333 -0.5 0
1.75 -0.5 0
1.73333 -0.483333 0
1.75 -0.483333 0
1.75 -0.5 0
1.76667 -0.5 0
1.75 -0.483333 0
1.76667 -0.483333 0
1.76667 -0.5 0
1.78333 -0.5 0
1.76667 -0.483333 0
1.78333 -0.483333 0
1.78333 -0.5 0
1.8 -0.5 0
1.78333 -0.483333 0
1.8 -0.483333 0
1.8 -0.5 0
1.81667 -0.5 0
1.8 -0.483333 0
1.81667 -0.483333 0
1.81667 -0.5 0
1.83333 -0.5 0
1.81667 -0.483333 0
1.83333 -0.483333 0
1.83333 -0.5 0
1.85 -0.5 0
1.83333 -0.483333 0
1.85 -0.483333 0
1.85 -0.5 0
1.86667 -0.5 0
1.85 -0.483333 0
1.86667 -0.483333 0
1.86667 -0.5 0
1.88333 -0.5 0
1.86667 -0.483333 0
1.88333 -0.483333 0
1.88333 -0.5 0
1.9 -0.5 0
1.88333 -0.483333 0
1.9 -0.483333 0
1.9 -0.5 0
1.91667 -0.5 0
1.9 -0.483333 0
1.91667 -0.483333 0
1.91667 -0.5 0
1.93333 -0.5 0
1.91667 -0.483333 0
1.93333 -0.483333 0
1.93333 -0.5 0
1.95 -0.5 0
1.93333 -0.483333 0
1.95 -0.483333 0
1.95 -0.5 0
1.96667 -0.5 0
1.95 -0.483333 0
1.96667 -0.483333 0
1.96667 -0.5 0
1.98333 -0.5 0
1.96667 -0.483333 0
1.98333 -0.483333 0
1.98333 -0.5 0
2 -0.5 0
1.98333 -0.483333 0
2 -0.483333 0
0 -0.483333 0
0.0166667 -0.483333 0
0 -0.466667 0
0.0166667 -0.466667 0
0.0166667 -0.483333 0
0.0333333 -0.483333 0
0.0166667 -0.466667 0
0.0333333 -0.466667 0
0.0333333 -0.483333 0
0.05 -0.483333 0
0.0333333 -0.466667 0
0.05 -0.466667 0
0.05 -0.483333 0
0.0666667 -0.483333 0
0.05 -0.466667 0
0.0666667 -0.466667 0
0.0666667 -0.483333 0
0.0833333 -0.483333 0
0.0666667 -0.466667 0
0.0833333 -0.466667 0
0.0833333 -0.483333 0
0.1 -0.483333 0
0.0833333 -0.466667 0
0.1 -0.466667 0
0.1 -0.483333 0
0.116667 -0.483333 0
0.1 -0.466667 0
0.116667 -0.466667 0
0.116667 -0.483333 0
0.133333 -0.483333 0
0.116667 -0.466667 0
0.133333 -0.466667 0
0.133333 -0.483333 0
0.15 -0.483333 0
0.133333 -0.466667 0
0.15 -0.466667 0
0.15 -0.483333 0
0.166667 -0.483333 0
0.15 -0.466667 0
0.166667 -0.466667 0
0.166667 -0.483333 0
0.183333 -0.483333 0
0.166667 -0.466667 0
0.183333 -0.466667 0
0.183333 -0.483333 0
0.2 -0.483333 0
0.183333 -0.466667 0
0.2 -0.466667 0
0.2 -0.483333 0
0.216667 -0.483333 0
0.2 -0.466667 0
0.216667 -0.466667 0
0.216667 -0.483333 0
0.233333 -0.483333 0
0.216667 -0.466667 0
0.233333 -0.466667 0
0.233333 -0.483333 0
0.25 -0.483333 0
0.233333 -0.466667 0
0.25 -0.466667 0
0.25 -0.483333 0
0.266667 -0.483333 0
0.25 -0.466667 0
0.266667 -0.466667 0
0.266667 -0.483333 0
0.283333 -0.483333 0
0.266667 -0.466667 0
0.283333 -0.466667 0
0.283333 -0.483333 0
0.3 -0.483333 0
0.283333 -0.466667 0
0.3 -0.466667 0
0.3 -0.483333 0
0.316667 -0.483333 0
0.3 -0.466667 0
0.316667 -0.466667 0
0.316667 -0.483333 0
0.333333 -0.483333 0
0.316667 -0.466667 0
0.333333 -0.466667 0
0.333333 -0.483333 0
0.35 -0.483333 0
0.333333 -0.466667 0
0.35 -0.466667 0
0.35 -0.483333 0
0.366667 -0.483333 0
0.35 -0.466667 0
0.366667 -0.466667 0
0.366667 -0.483333 0
0.383333 -0.483333 0
0.366667 -0.466667 0
0.383333 -0.466667 0
0.383333 -0.483333 0
0.4 -0.483333 0
[...]
POINT_DATA 28800
SCALARS x1_displacement double 1
LOOKUP_TABLE default
0 0.00310901 0 0.00149636 0.00310901 0.00521242 0.00149636 0.00369513 0.00521242 0.00700964 0.00369513 0.00577187 0.00700964 0.00881027 0.00577187 0.00776555 0.00881027 0.0106638 0.00776555 0.00972639 0.0106638 0.0125776 0.00972639 0.0116818 0.0125776 0.0145408 0.0116818 0.0136421 0.0145408 0.0165389 0.0136421 0.0156085 0.0165389 0.0185582 0.0156085 0.0175786 0.0185582 0.0205873 0.0175786 0.0195491 0.0205873 0.0226176 0.0195491 0.0215163 0.0226176 0.0246431 0.0215163 0.0234777 0.0246431 0.0266594 0.0234777 0.0254309 0.0266594 0.028664 0.0254309 0.0273745 0.028664 0.0306553 0.0273745 0.0293077 0.0306553 0.0326324 0.0293077 0.0312299 0.0326324 0.0345951 0.0312299 0.0331409 0.0345951 0.0365435 0.0331409 0.0350407 0.0365435 0.0384778 0.0350407 0.0369295 0.0384778 0.0403983 0.0369295 0.0388074 0.0403983 0.0423057 0.0388074 0.040675 0.0423057 0.0442004 0.040675 0.0425325 0.0442004 0.0460831 0.0425325 0.0443804 0.0460831 0.0479544 0.0443804 0.0462192 0.0479544 0.0498153 0.0462192 0.0480496 0.0498153 0.0516665 0.0480496 0.0498723 0.0516665 0.0535092 0.0498723 0.0516879 0.0535092 0.0553446 0.0516879 0.0534976 0.0553446 0.0571743 0.0534976 0.0553022 0.0571743 0.0589999 0.0553022 0.0571032 0.0589999 0.0608234 0.0571032 0.0589017 0.0608234 0.0626468 0.0589017 0.0606994 0.0626468 0.0644721 0.0606994 0.0624975 0.0644721 0.0663012 0.0624975 0.0642974 0.0663012 0.0681353 0.0642974 0.0661 0.0681353 0.0699753 0.0661 0.067906 0.0699753 0.0718214 0.067906 0.0697155 0.0718214 0.073673 0.0697155 0.0715283 0.073673 0.0755291 0.0715283 0.0733437 0.0755291 0.0773883 0.0733437 0.0751608 0.0773883 0.0792494 0.0751608 0.0769787 0.0792494 0.0811108 0.0769787 0.0787966 0.0811108 0.0829715 0.0787966 0.0806137 0.0829715 0.0848304 0.0806137 0.0824293 0.0848304 0.086687 0.0824293 0.084243 0.086687 0.0885407 0.084243 0.0860544 0.0885407 0.0903912 0.0860544 0.0878633 0.0903912 0.0922383 0.0878633 0.0896696 0.0922383 0.0940819 0.0896696 0.0914731 0.0940819 0.0959219 0.0914731 0.0932737 0.0959219 0.0977582 0.0932737 0.0950713 0.0977582 0.0995907 0.0950713 0.096866 0.0995907 0.101419 0.096866 0.0986575 0.101419 0.103243 0.0986575 0.100446 0.103243 0.105063 0.100446 0.10223 0.105063 0.106878 0.10223 0.104012 0.106878 0.108687 0.104012 0.105789 0.108687 0.110491 0.105789 0.107563 0.110491 0.112291 0.107563 0.109333 0.112291 0.114086 0.109333 0.111101 0.114086 0.115878 0.111101 0.112867 0.115878 0.11767 0.112867 0.114633 0.11767 0.119463 0.114633 0.1164 0.119463 0.12126 0.1164 0.118171 0.12126 0.123065 0.118171 0.119947 0.123065 0.124878 0.119947 0.12173 0.124878 0.126701 0.12173 0.12352 0.126701 0.128534 0.12352 0.125318 0.128534 0.130376 0.125318 0.127122 0.130376 0.132226 0.127122 0.128932 0.132226 0.134082 0.128932 0.130747 0.134082 0.135946 0.130747 0.132566 0.135946 0.137821 0.132566 0.134388 0.137821 0.139709 0.134388 0.136216 0.139709 0.141613 0.136216 0.138052 0.141613 0.143535 0.138052 0.139894 0.143535 0.145471 0.139894 0.141742 0.145471 0.147415 0.141742 0.143593 0.147415 0.149363 0.143593 0.145442 0.149363 0.151309 0.145442 0.147291 0.151309 0.153252 0.147291 0.149138 0.153252 0.155189 0.149138 0.150984 0.155189 0.157119 0.150984 0.152827 0.157119 0.159042 0.152827 0.154669 0.159042 0.160958 0.154669 0.156509 0.160958 0.162866 0.156509 0.158347 0.162866 0.164767 0.158347 0.160184 0.164767 0.16666 0.160184 0.162019 0.16666 0.168546 0.162019 0.163852 0.168546 0.170424 0.163852 0.165683 0.170424 0.172295 0.165683 0.167513 0.172295 0.174159 0.167513 0.16934 0.174159 0.176014 0.16934 0.171167 0.176014 0.177863 0.171167 0.172991 0.177863 0.179704 0.172991 0.174813 0.179704 0.181537 0.174813 0.176634 0.181537 0.183363 0.176634 0.178453 0.183363 0.185182 0.178453 0.18027 0.185182 0.186993 0.18027 0.182086 0.186993 0.188796 0.182086 0.1839 0.188796 0.190592 0.1839 0.185712 0.190592 0.19238 0.185712 0.187522 0.19238 0.194161 0.187522 0.189331 0.194161 0.195935 0.189331 0.191137 0.195935 0.197701 0.191137 0.192942 0.197701 0.199459 0.192942 0.194745 0.199459 0.20121 0.194745 0.196547 0.20121 0.202953 0.196547 0.198347 0.202953 0.204689 0.198347 0.200145 0.204689 0.206417 0.200145 0.201941 0.206417 0.208138 0.201941 0.203735 0.208138 0.209852 0.203735 0.205527 0.209852 0.211562 0.205527 0.207316 0.211562 0.213274 0.207316 0.209101 0.213274 0.214991 0.209101 0.210889 0.214991 0.216718 0.210889 0.212681 0.216718 0.218456 0.212681 0.21445 0.218456 0.22018 0.21445 0.216184 0.22018 0.221872 0.216184 0.217879 0.221872 0.223542 0.217879 0.219547 0 0.00149636 0 0.00119416 0.00149636 0.00369513 0.00119416 0.00287019 0.00369513 0.00577187 0.00287019 0.00482512 0.00577187 0.00776555 0.00482512 0.00681876 0.00776555 0.00972639 0.00681876 0.00880373 0.00972639 0.0116818 0.00880373 0.0107719 0.0116818 0.0136421 0.0107719 0.012725 0.0136421 0.0156085 0.012725 0.0146659 0.0156085 0.0175786 0.0146659 0.0165961 0.0175786 0.0195491 0.0165961 0.0185169 0.0195491 0.0215163 0.0185169 0.0204286 0.0215163 0.0234777 0.0204286 0.0223314 0.0234777 0.0254309 0.0223314 0.0242255 0.0254309 0.0273745 0.0242255 0.0261107 0.0273745 0.0293077 0.0261107 0.0279873 0.0293077 0.0312299 0.0279873 0.0298552 0.0312299 0.0331409 0.0298552 0.0317145 0.0331409 0.0350407 0.0317145 0.0335653 0.0350407 0.0369295 0.0335653 0.035408 0.0369295 0.0388074 0.035408 0.0372425 0.0388074 0.040675 0.0372425 0.0390692 0.040675 0.0425325 0.0390692 0.0408884 0.0425325 0.0443804 0.0408884 0.0427002 0.0443804 0.0462192 0.0427002 0.0445051 0.0462192 0.0480496 0.0445051 0.0463033 0.0480496 0.0498723 0.0463033 0.0480954 0.0498723 0.0516879 0.0480954 0.0498816 0.0516879 0.0534976 0.0498816 0.0516627 0.0534976 0.0553022 0.0516627 0.0534394 0.0553022 0.0571032 0.0534394 0.0552123 0.0571032 0.0589017 0.0552123 0.0569824 0.0589017 0.0606994 0.0569824 0.0587509 0.0606994 0.0624975 0.0587509 0.0605187 0.0624975 0.0642974 0.0605187 0.0622871 0.0642974 0.0661 0.0622871 0.0640567 0.0661 0.067906 0.0640567 0.0658283 0.067906 0.0697155 0.0658283 0.0676019 0.0697155 0.0715283 0.0676019 0.0693773 0.0715283 0.0733437 0.0693773 0.0711539 0.0733437 0.0751608 0.0711539 0.0729311 0.0751608 0.0769787 0.0729311 0.0747081 0.0769787 0.0787966 0.0747081 0.0764844 0.0787966 0.0806137 0.0764844 0.0782594 0.0806137 0.0824293 0.0782594 0.0800329 0.0824293 0.084243 0.0800329 0.0818046 0.084243 0.0860544 0.0818046 0.0835744 0.0860544 0.0878633 0.0835744 0.0853421 0.0878633 0.0896696 0.0853421 0.0871078 0.0896696 0.0914731 0.0871078 0.0888714 0.0914731 0.0932737 0.0888714 0.0906328 0.0932737 0.0950713 0.0906328 0.0923921 0.0950713 0.096866 0.0923921 0.0941492 0.096866 0.0986575 0.0941492 0.0959041 0.0986575 0.100446 0.0959041 0.0976567 0.100446 0.10223 0.0976567 0.0994069 0.10223 0.104012 0.0994069 0.101155 0.104012 0.105789 0.101155 0.1029 0.105789 0.107563 0.1029 0.104642 0.107563 0.109333 0.104642 0.106382 0.109333 0.111101 0.106382 0.10812 0.111101 0.112867 0.10812 0.109856 0.112867 0.114633 0.109856 0.111592 0.114633 0.1164 0.111592 0.113329 0.1164 0.118171 0.113329 0.115069 0.118171 0.119947 0.115069 0.116813 0.119947 0.12173 0.116813 0.118564 0.12173 0.12352 0.118564 0.120322 0.12352 0.125318 0.120322 0.122085 0.125318 0.127122 0.122085 0.123854 0.127122 0.128932 0.123854 0.125627 0.128932 0.130747 0.125627 0.127401 0.130747 0.132566 0.127401 0.129174 0.132566 0.134388 0.129174 0.130944 0.134388 0.136216 0.130944 0.132709 0.136216 0.138052 0.132709 0.134472 0.138052 0.139894 0.134472 0.136241 0.139894 0.141742 0.136241 0.13801 0.141742 0.143593 0.13801 0.13977 0.143593 0.145442 0.13977 0.141523 0.145442 0.147291 0.141523 0.143276 0.147291 0.149138 0.143276 0.145028 0.149138 0.150984 0.145028 0.146783 0.150984 0.152827 0.146783 0.14854 0.152827 0.154669 0.14854 0.1503 0.154669 0.156509 0.1503 0.152065 0.156509 0.158347 0.152065 0.153833 0.158347 0.160184 0.153833 0.155606 0.160184 0.162019 0.155606 0.157382 0.162019 0.163852 0.157382 0.159162 0.163852 0.165683 0.159162 0.160946 0.165683 0.167513 0.160946 0.162735 0.167513 0.16934 0.162735 0.164527 0.16934 0.171167 0.164527 0.166323 0.171167 0.172991 0.166323 0.168123 0.172991 0.174813 0.168123 0.169927 0.174813 0.176634 0.169927 0.171735 0.176634 0.178453 0.171735 0.173547 0.178453 0.18027 0.173547 0.175364 0.18027 0.182086 0.175364 0.177184 0.182086 0.1839 0.177184 0.179008 0.1839 0.185712 0.179008 0.180836 0.185712 0.187522 0.180836 0.182668 0.187522 0.189331 0.182668 0.184504 0.189331 0.191137 0.184504 0.186344 0.191137 0.192942 0.186344 0.188188 0.192942 0.194745 0.188188 0.190036 0.194745 0.196547 0.190036 0.191888 0.196547 0.198347 0.191888 0.193745 0.198347 0.200145 0.193745 0.195605 0.200145 0.201941 0.195605 0.197469 0.201941 0.203735 0.197469 0.199336 0.203735 0.205527 0.199336 0.201207 0.205527 0.207316 0.201207 0.203077 0.207316 0.209101 0.203077 0.204939 0.209101 0.210889 0.204939 0.20681 0.210889 0.212681 0.20681 0.208707 0.212681 0.21445 0.208707 0.210516 0.21445 0.216184 0.210516 0.212252 0.216184 0.217879 0.212252 0.213934 0.217879 0.219547 0.213934 0.215582 0 0.00119416 0 0.00100916 0.00119416 0.00287019 0.00100916 0.00244602 0.00287019 0.00482512 0.00244602 0.00417566 0.00482512 0.00681876 0.00417566 0.00605751 0.00681876 0.00880373 0.00605751 0.00798747 0.00880373 0.0107719 0.00798747 0.00992157 0.0107719 0.012725 0.00992157 0.0118425 0.012725 0.0146659 0.0118425 0.0137456 0.0146659 0.0165961 0.0137456 0.0156309 0.0165961 0.0185169 0.0156309 0.0175007 0.0185169 0.0204286 0.0175007 0.0193573 0.0204286 0.0223314 0.0193573 0.0212027 0.0223314 0.0242255 0.0212027 0.0230386 0.0242255 0.0261107 0.0230386 0.0248664 0.0261107 0.0279873 0.0248664 0.0266868 0.0279873 0.0298552 0.0266868 0.0285007 0.0298552 0.0317145 0.0285007 0.0303083 0.0317145 0.0335653 0.0303083 0.0321101 0.0335653 0.035408 0.0321101 0.0339063 0.035408 0.0372425 0.0339063 0.0356969 0.0372425 0.0390692 0.0356969 0.0374822 0.0390692 0.0408884 0.0374822 0.0392622 0.0408884 0.0427002 0.0392622 0.0410372 0.0427002 0.0445051 0.0410372 0.042807 0.0445051 0.0463033 0.042807 0.044572 0.0463033 0.0480954 0.044572 0.0463321 0.0480954 0.0498816 0.0463321 0.0480875 0.0498816 0.0516627 0.0480875 0.0498384 0.0516627 0.0534394 0.0498384 0.0515851 0.0534394 0.0552123 0.0515851 0.0533279 0.0552123 0.0569824 0.0533279 0.0550675 0.0569824 0.0587509 0.0550675 0.0568046 0.0587509 0.0605187 0.0568046 0.0585402 0.0605187 0.0622871 0.0585402 0.0602753 0.0622871 0.0640567 0.0602753 0.062011 0.0640567 0.0658283 0.062011 0.0637477 0.0658283 0.0676019 0.0637477 0.0654856 0.0676019 0.0693773 0.0654856 0.0672243 0.0693773 0.0711539 0.0672243 0.0689632 0.0711539 0.0729311 0.0689632 0.0707015 0.0729311 0.0747081 0.0707015 0.0724387 0.0747081 0.0764844 0.0724387 0.0741744 0.0764844 0.0782594 0.0741744 0.0759082 0.0782594 0.0800329 0.0759082 0.0776402 0.0800329 0.0818046 0.0776402 0.0793705 0.0818046 0.0835744 0.0793705 0.081099 0.0835744 0.0853421 0.081099 0.0828258 0.0853421 0.0871078 0.0828258 0.0845512 0.0871078 0.0888714 0.0845512 0.086275 0.0888714 0.0906328 0.086275 0.0879974 0.0906328 0.0923921 0.0879974 0.0897184 0.0923921 0.0941492 0.0897184 0.0914381 0.0941492 0.0959041 0.0914381 0.0931565 0.0959041 0.0976567 0.0931565 0.0948736 0.0976567 0.0994069 0.0948736 0.0965893 0.0994069 0.101155 0.0965893 0.0983036 0.101155 0.1029 0.0983036 0.100016 0.1029 0.104642 0.100016 0.101727 0.104642 0.106382 0.101727 0.103435 0.106382 0.10812 0.103435 0.105141 0.10812 0.109856 0.105141 0.106845 0.109856 0.111592 0.106845 0.108547 0.111592 0.113329 0.108547 0.110251 0.113329 0.115069 0.110251 0.111957 0.115069 0.116813 0.111957 0.113668 0.116813 0.118564 0.113668 0.115385 0.118564 0.120322 0.115385 0.11711 0.120322 0.122085 0.11711 0.118841 0.122085 0.123854 0.118841 0.120576 0.123854 0.125627 0.120576 0.122314 0.125627 0.127401 0.122314 0.124051 0.127401 0.129174 0.124051 0.125785 0.129174 0.130944 0.125785 0.127511 0.130944 0.132709 0.127511 0.129223 0.132709 0.134472 0.129223 0.130922 0.134472 0.136241 0.130922 0.132614 0.136241 0.13801 0.132614 0.134292 0.13801 0.13977 0.134292 0.135953 0.13977 0.141523 0.135953 0.137609 0.141523 0.143276 0.137609 0.139265 0.143276 0.145028 0.139265 0.140923 0.145028 0.146783 0.140923 0.142584 0.146783 0.14854 0.142584 0.144254 0.14854 0.1503 0.144254 0.145933 0.1503 0.152065 0.145933 0.147622 0.152065 0.153833 0.147622 0.14932 0.153833 0.155606 0.14932 0.151028 0.155606 0.157382 0.151028 0.152746 0.157382 0.159162 0.152746 0.154473 0.159162 0.160946 0.154473 0.156211 0.160946 0.162735 0.156211 0.157957 0.162735 0.164527 0.157957 0.159714 0.164527 0.166323 0.159714 0.16148 0.166323 0.168123 0.16148 0.163256 0.168123 0.169927 0.163256 0.165042 0.169927 0.171735 0.165042 0.166837 0.171735 0.173547 0.166837 0.168643 0.173547 0.175364 0.168643 0.170458 0.175364 0.177184 0.170458 0.172282 0.177184 0.179008 0.172282 0.174117 0.179008 0.180836 0.174117 0.175961 0.180836 0.182668 0.175961 0.177815 0.182668 0.184504 0.177815 0.179678 0.184504 0.186344 0.179678 0.181552 0.186344 0.188188 0.181552 0.183435 0.188188 0.190036 0.183435 0.185328 0.190036 0.191888 0.185328 0.187231 0.191888 0.193745 0.187231 0.189143 0.193745 0.195605 0.189143 0.191066 0.195605 0.197469 0.191066 0.192998 0.197469 0.199336 0.192998 0.194939 0.199336 0.201207 0.194939 0.196891 0.201207 0.203077 0.196891 0.198857 0.203077 0.204939 0.198857 0.20085 0.204939 0.20681 0.20085 0.202937 0.20681 0.208707 0.202937 0.204874 0.208707 0.210516 0.204874 0.206649 0.210516 0.212252 0.206649 0.208352 0.212252 0.213934 0.208352 0.210006 0.213934 0.215582 0.210006 0.211625 0 0.00100916 0 0.000890792 0.00100916 0.00244602 0.000890792 0.00216068 0.00244602 0.00417566 0.00216068 0.00372362 0.00417566 0.00605751 0.00372362 0.00546816 0.00605751 0.00798747 0.00546816 0.00730186 0.00798747 0.00992157 0.00730186 0.00916407 0.00992157 0.0118425 0.00916407 0.0110241 0.0118425 0.0137456 0.0110241 0.0128695 0.0137456 0.0156309 0.0128695 0.0146969 0.0156309 0.0175007 0.0146969 0.0165077 0.0175007 0.0193573 0.0165077 0.0183044 0.0193573 0.0212027 0.0183044 0.0200897 0.0212027 0.0230386 0.0200897 0.0218661 0.0230386 0.0248664 0.0218661 0.0236356 0.0248664 0.0266868 0.0236356 0.0253997 0.0266868 0.0285007 0.0253997 0.0271594 0.0285007 0.0303083 0.0271594 0.0289154 0.0303083 0.0321101 0.0289154 0.030668 0.0321101 0.0339063 0.030668 0.0324175 0.0339063 0.0356969 0.0324175 0.034164 0.0356969 0.0374822 0.034164 0.0359076 0.0374822 0.0392622 0.0359076 0.0376483 0.0392622 0.0410372 0.0376483 0.0393859 0.0410372 0.042807 0.0393859 0.0411204 0.042807 0.044572 0.0411204 0.0428515 0.044572 0.0463321 0.0428515 0.0445791 0.0463321 0.0480875 0.0445791 0.046303 0.0480875 0.0498384 0.046303 0.048023 0.0498384 0.0515851 0.048023 0.049739 0.0515851 0.0533279 0.049739 0.0514508 0.0533279 0.0550675 0.0514508 0.0531588 0.0550675 0.0568046 0.0531588 0.0548634 0.0568046 0.0585402 0.0548634 0.0565656 0.0585402 0.0602753 0.0565656 0.0582665 0.0602753 0.062011 0.0582665 0.0599673 0.062011 0.0637477 0.0599673 0.0616687 0.0637477 0.0654856 0.0616687 0.0633708 0.0654856 0.0672243 0.0633708 0.065073 0.0672243 0.0689632 0.065073 0.0667745 0.0689632 0.0707015 0.0667745 0.0684744 0.0707015 0.0724387 0.0684744 0.070172 0.0724387 0.0741744 0.070172 0.0718671 0.0741744 0.0759082 0.0718671 0.0735599 0.0759082 0.0776402 0.0735599 0.0752506 0.0776402 0.0793705 0.0752506 0.0769395 0.0793705 0.081099 0.0769395 0.0786269 0.081099 0.0828258 0.0786269 0.080313 0.0828258 0.0845512 0.080313 0.081998 0.0845512 0.086275 0.081998 0.0836821 0.086275 0.0879974 0.0836821 0.0853655 0.0879974 0.0897184 0.0853655 0.0870483 0.0897184 0.0914381 0.0870483 0.0887305 0.0914381 0.0931565 0.0887305 0.0904123 0.0931565 0.0948736 0.0904123 0.0920938 0.0948736 0.0965893 0.0920938 0.0937749 0.0965893 0.0983036 0.0937749 0.0954555 0.0983036 0.100016 0.0954555 0.0971352 0.100016 0.101727 0.0971352 0.0988135 0.101727 0.103435 0.0988135 0.100489 0.103435 0.105141 0.100489 0.102162 0.105141 0.106845 0.102162 0.103832 0.106845 0.108547 0.103832 0.1055 0.108547 0.110251 0.1055 0.107167 0.110251 0.111957 0.107167 0.108837 0.111957 0.113668 0.108837 0.110513 0.113668 0.115385 0.110513 0.112196 0.115385 0.11711 0.112196 0.113888 0.11711 0.118841 0.113888 0.115588 0.118841 0.120576 0.115588 0.117292 0.120576 0.122314 0.117292 0.118998 0.122314 0.124051 0.118998 0.120703 0.124051 0.125785 0.120703 0.122404 0.125785 0.127511 0.122404 0.124101 0.127511 0.129223 0.124101 0.125793 0.129223 0.130922 0.125793 0.127485 0.130922 0.132614 0.127485 0.129184 0.132614 0.134292 0.129184 0.130882 0.134292 0.135953 0.130882 0.132545 0.135953 0.137609 0.132545 0.134099 0.137609 0.139265 0.134099 0.135638 0.139265 0.140923 0.135638 0.136998 0.140923 0.142584 0.136998 0.138462 0.142584 0.144254 0.138462 0.140005 0.144254 0.145933 0.140005 0.141588 0.145933 0.147622 0.141588 0.143195 0.147622 0.14932 0.143195 0.144821 0.14932 0.151028 0.144821 0.146464 0.151028 0.152746 0.146464 0.148123 0.152746 0.154473 0.148123 0.149797 0.154473 0.156211 0.149797 0.151487 0.156211 0.157957 0.151487 0.153193 0.157957 0.159714 0.153193 0.154914 0.159714 0.16148 0.154914 0.15665 0.16148 0.163256 0.15665 0.158402 0.163256 0.165042 0.158402 0.160169 0.165042 0.166837 0.160169 0.161952 0.166837 0.168643 0.161952 0.163751 0.168643 0.170458 0.163751 0.165564 0.170458 0.172282 0.165564 0.167394 0.172282 0.174117 0.167394 0.169238 0.174117 0.175961 0.169238 0.171099 0.175961 0.177815 0.171099 0.172974 0.177815 0.179678 0.172974 0.174866 0.179678 0.181552 0.174866 0.176772 0.181552 0.183435 0.176772 0.178695 0.183435 0.185328 0.178695 0.180633 0.185328 0.187231 0.180633 0.182587 0.187231 0.189143 0.182587 0.184557 0.189143 0.191066 0.184557 0.186544 0.191066 0.192998 0.186544 0.188552 0.192998 0.194939 0.188552 0.190588 0.194939 0.196891 0.190588 0.192671 0.196891 0.198857 0.192671 0.194852 0.198857 0.20085 0.194852 0.197242 0.20085 0.202937 0.197242 0.199245 0.202937 0.204874 0.199245 0.201026 0.204874 0.206649 0.201026 0.20275 0.206649 0.208352 0.20275 0.20442 0.208352 0.210006 0.20442 0.206044 0.210006 0.211625 0.206044 0.207627 0 0.000890792 0 0.000796944 0.000890792 0.00216068 0.000796944 0.0019529 0.00216068 0.00372362 0.0019529 0.0033897 0.00372362 0.00546816 0.0033897 0.0050123 0.00546816 0.00730186 0.0050123 0.00673653 0.00730186 0.00916407 0.00673653 0.00850321 0.00916407 0.0110241 0.00850321 0.0102779 0.0110241 0.0128695 0.0102779 0.0120447 0.0128695 0.0146969 0.0120447 0.0137985 0.0146969 0.0165077 0.0137985 0.0155392 0.0165077 0.0183044 0.0155392 0.0172686 0.0183044 0.0200897 0.0172686 0.018989 0.0200897 0.0218661 0.018989 0.0207029 0.0218661 0.0236356 0.0207029 0.0224124 0.0236356 0.0253997 0.0224124 0.0241192 0.0253997 0.0271594 0.0241192 0.0258244 0.0271594 0.0289154 0.0258244 0.0275286 0.0289154 0.030668 0.0275286 0.0292321 0.030668 0.0324175 0.0292321 0.0309351 0.0324175 0.034164 0.0309351 0.0326376 0.034164 0.0359076 0.0326376 0.0343396 0.0359076 0.0376483 0.0343396 0.036041 0.0376483 0.0393859 0.036041 0.0377415 0.0393859 0.0411204 0.0377415 0.0394406 0.0411204 0.0428515 0.0394406 0.041138 0.0428515 0.0445791 0.041138 0.0428333 0.0445791 0.046303 0.0428333 0.0445259 0.046303 0.048023 0.0445259 0.0462152 0.048023 0.049739 0.0462152 0.0479007 0.049739 0.0514508 0.0479007 0.0495818 0.0514508 0.0531588 0.0495818 0.0512582 0.0531588 0.0548634 0.0512582 0.0529303 0.0548634 0.0565656 0.0529303 0.0545987 0.0565656 0.0582665 0.0545987 0.0562647 0.0582665 0.0599673 0.0562647 0.05793 0.0599673 0.0616687 0.05793 0.0595957 0.0616687 0.0633708 0.0595957 0.0612617 0.0633708 0.065073 0.0612617 0.0629272 0.065073 0.0667745 0.0629272 0.0645909 0.0667745 0.0684744 0.0645909 0.0662517 0.0684744 0.070172 0.0662517 0.0679091 0.070172 0.0718671 0.0679091 0.0695632 0.0718671 0.0735599 0.0695632 0.0712144 0.0735599 0.0752506 0.0712144 0.0728634 0.0752506 0.0769395 0.0728634 0.0745107 0.0769395 0.0786269 0.0745107 0.0761568 0.0786269 0.080313 0.0761568 0.077802 0.080313 0.081998 0.077802 0.0794467 0.081998 0.0836821 0.0794467 0.0810912 0