# vtk DataFile Version 3.0
#This file was generated by the deal.II library on 2021/2/11 at 23:39:14
ASCII
DATASET UNSTRUCTURED_GRID

POINTS 28800 double
0 -0.5 0
0.0166667 -0.5 0
0 -0.483333 0
0.0166667 -0.483333 0
0.0166667 -0.5 0
0.0333333 -0.5 0
0.0166667 -0.483333 0
0.0333333 -0.483333 0
0.0333333 -0.5 0
0.05 -0.5 0
0.0333333 -0.483333 0
0.05 -0.483333 0
0.05 -0.5 0
0.0666667 -0.5 0
0.05 -0.483333 0
0.0666667 -0.483333 0
0.0666667 -0.5 0
0.0833333 -0.5 0
0.0666667 -0.483333 0
0.0833333 -0.483333 0
0.0833333 -0.5 0
0.1 -0.5 0
0.0833333 -0.483333 0
0.1 -0.483333 0
0.1 -0.5 0
0.116667 -0.5 0
0.1 -0.483333 0
0.116667 -0.483333 0
0.116667 -0.5 0
0.133333 -0.5 0
0.116667 -0.483333 0
0.133333 -0.483333 0
0.133333 -0.5 0
0.15 -0.5 0
0.133333 -0.483333 0
0.15 -0.483333 0
0.15 -0.5 0
0.166667 -0.5 0
0.15 -0.483333 0
0.166667 -0.483333 0
0.166667 -0.5 0
0.183333 -0.5 0
0.166667 -0.483333 0
0.183333 -0.483333 0
0.183333 -0.5 0
0.2 -0.5 0
0.183333 -0.483333 0
0.2 -0.483333 0
0.2 -0.5 0
0.216667 -0.5 0
0.2 -0.483333 0
0.216667 -0.483333 0
0.216667 -0.5 0
0.233333 -0.5 0
0.216667 -0.483333 0
0.233333 -0.483333 0
0.233333 -0.5 0
0.25 -0.5 0
0.233333 -0.483333 0
0.25 -0.483333 0
0.25 -0.5 0
0.266667 -0.5 0
0.25 -0.483333 0
0.266667 -0.483333 0
0.266667 -0.5 0
0.283333 -0.5 0
0.266667 -0.483333 0
0.283333 -0.483333 0
0.283333 -0.5 0
0.3 -0.5 0
0.283333 -0.483333 0
0.3 -0.483333 0
0.3 -0.5 0
0.316667 -0.5 0
0.3 -0.483333 0
0.316667 -0.483333 0
0.316667 -0.5 0
0.333333 -0.5 0
0.316667 -0.483333 0
0.333333 -0.483333 0
0.333333 -0.5 0
0.35 -0.5 0
0.333333 -0.483333 0
0.35 -0.483333 0
0.35 -0.5 0
0.366667 -0.5 0
0.35 -0.483333 0
0.366667 -0.483333 0
0.366667 -0.5 0
0.383333 -0.5 0
0.366667 -0.483333 0
0.383333 -0.483333 0
0.383333 -0.5 0
0.4 -0.5 0
0.383333 -0.483333 0
0.4 -0.483333 0
0.4 -0.5 0
0.416667 -0.5 0
0.4 -0.483333 0
0.416667 -0.483333 0
0.416667 -0.5 0
0.433333 -0.5 0
0.416667 -0.483333 0
0.433333 -0.483333 0
0.433333 -0.5 0
0.45 -0.5 0
0.433333 -0.483333 0
0.45 -0.483333 0
0.45 -0.5 0
0.466667 -0.5 0
0.45 -0.483333 0
0.466667 -0.483333 0
0.466667 -0.5 0
0.483333 -0.5 0
0.466667 -0.483333 0
0.483333 -0.483333 0
0.483333 -0.5 0
0.5 -0.5 0
0.483333 -0.483333 0
0.5 -0.483333 0
0.5 -0.5 0
0.516667 -0.5 0
0.5 -0.483333 0
0.516667 -0.483333 0
0.516667 -0.5 0
0.533333 -0.5 0
0.516667 -0.483333 0
0.533333 -0.483333 0
0.533333 -0.5 0
0.55 -0.5 0
0.533333 -0.483333 0
0.55 -0.483333 0
0.55 -0.5 0
0.566667 -0.5 0
0.55 -0.483333 0
0.566667 -0.483333 0
0.566667 -0.5 0
0.583333 -0.5 0
0.566667 -0.483333 0
0.583333 -0.483333 0
0.583333 -0.5 0
0.6 -0.5 0
0.583333 -0.483333 0
0.6 -0.483333 0
0.6 -0.5 0
0.616667 -0.5 0
0.6 -0.483333 0
0.616667 -0.483333 0
0.616667 -0.5 0
0.633333 -0.5 0
0.616667 -0.483333 0
0.633333 -0.483333 0
0.633333 -0.5 0
0.65 -0.5 0
0.633333 -0.483333 0
0.65 -0.483333 0
0.65 -0.5 0
0.666667 -0.5 0
0.65 -0.483333 0
0.666667 -0.483333 0
0.666667 -0.5 0
0.683333 -0.5 0
0.666667 -0.483333 0
0.683333 -0.483333 0
0.683333 -0.5 0
0.7 -0.5 0
0.683333 -0.483333 0
0.7 -0.483333 0
0.7 -0.5 0
0.716667 -0.5 0
0.7 -0.483333 0
0.716667 -0.483333 0
0.716667 -0.5 0
0.733333 -0.5 0
0.716667 -0.483333 0
0.733333 -0.483333 0
0.733333 -0.5 0
0.75 -0.5 0
0.733333 -0.483333 0
0.75 -0.483333 0
0.75 -0.5 0
0.766667 -0.5 0
0.75 -0.483333 0
0.766667 -0.483333 0
0.766667 -0.5 0
0.783333 -0.5 0
0.766667 -0.483333 0
0.783333 -0.483333 0
0.783333 -0.5 0
0.8 -0.5 0
0.783333 -0.483333 0
0.8 -0.483333 0
0.8 -0.5 0
0.816667 -0.5 0
0.8 -0.483333 0
0.816667 -0.483333 0
0.816667 -0.5 0
0.833333 -0.5 0
0.816667 -0.483333 0
0.833333 -0.483333 0
0.833333 -0.5 0
0.85 -0.5 0
0.833333 -0.483333 0
0.85 -0.483333 0
0.85 -0.5 0
0.866667 -0.5 0
0.85 -0.483333 0
0.866667 -0.483333 0
0.866667 -0.5 0
0.883333 -0.5 0
0.866667 -0.483333 0
0.883333 -0.483333 0
0.883333 -0.5 0
0.9 -0.5 0
0.883333 -0.483333 0
0.9 -0.483333 0
0.9 -0.5 0
0.916667 -0.5 0
0.9 -0.483333 0
0.916667 -0.483333 0
0.916667 -0.5 0
0.933333 -0.5 0
0.916667 -0.483333 0
0.933333 -0.483333 0
0.933333 -0.5 0
0.95 -0.5 0
0.933333 -0.483333 0
0.95 -0.483333 0
0.95 -0.5 0
0.966667 -0.5 0
0.95 -0.483333 0
0.966667 -0.483333 0
0.966667 -0.5 0
0.983333 -0.5 0
0.966667 -0.483333 0
0.983333 -0.483333 0
0.983333 -0.5 0
1 -0.5 0
0.983333 -0.483333 0
1 -0.483333 0
1 -0.5 0
1.01667 -0.5 0
1 -0.483333 0
1.01667 -0.483333 0
1.01667 -0.5 0
1.03333 -0.5 0
1.01667 -0.483333 0
1.03333 -0.483333 0
1.03333 -0.5 0
1.05 -0.5 0
1.03333 -0.483333 0
1.05 -0.483333 0
1.05 -0.5 0
1.06667 -0.5 0
1.05 -0.483333 0
1.06667 -0.483333 0
1.06667 -0.5 0
1.08333 -0.5 0
1.06667 -0.483333 0
1.08333 -0.483333 0
1.08333 -0.5 0
1.1 -0.5 0
1.08333 -0.483333 0
1.1 -0.483333 0
1.1 -0.5 0
1.11667 -0.5 0
1.1 -0.483333 0
1.11667 -0.483333 0
1.11667 -0.5 0
1.13333 -0.5 0
1.11667 -0.483333 0
1.13333 -0.483333 0
1.13333 -0.5 0
1.15 -0.5 0
1.13333 -0.483333 0
1.15 -0.483333 0
1.15 -0.5 0
1.16667 -0.5 0
1.15 -0.483333 0
1.16667 -0.483333 0
1.16667 -0.5 0
1.18333 -0.5 0
1.16667 -0.483333 0
1.18333 -0.483333 0
1.18333 -0.5 0
1.2 -0.5 0
1.18333 -0.483333 0
1.2 -0.483333 0
1.2 -0.5 0
1.21667 -0.5 0
1.2 -0.483333 0
1.21667 -0.483333 0
1.21667 -0.5 0
1.23333 -0.5 0
1.21667 -0.483333 0
1.23333 -0.483333 0
1.23333 -0.5 0
1.25 -0.5 0
1.23333 -0.483333 0
1.25 -0.483333 0
1.25 -0.5 0
1.26667 -0.5 0
1.25 -0.483333 0
1.26667 -0.483333 0
1.26667 -0.5 0
1.28333 -0.5 0
1.26667 -0.483333 0
1.28333 -0.483333 0
1.28333 -0.5 0
1.3 -0.5 0
1.28333 -0.483333 0
1.3 -0.483333 0
1.3 -0.5 0
1.31667 -0.5 0
1.3 -0.483333 0
1.31667 -0.483333 0
1.31667 -0.5 0
1.33333 -0.5 0
1.31667 -0.483333 0
1.33333 -0.483333 0
1.33333 -0.5 0
1.35 -0.5 0
1.33333 -0.483333 0
1.35 -0.483333 0
1.35 -0.5 0
1.36667 -0.5 0
1.35 -0.483333 0
1.36667 -0.483333 0
1.36667 -0.5 0
1.38333 -0.5 0
1.36667 -0.483333 0
1.38333 -0.483333 0
1.38333 -0.5 0
1.4 -0.5 0
1.38333 -0.483333 0
1.4 -0.483333 0
1.4 -0.5 0
1.41667 -0.5 0
1.4 -0.483333 0
1.41667 -0.483333 0
1.41667 -0.5 0
1.43333 -0.5 0
1.41667 -0.483333 0
1.43333 -0.483333 0
1.43333 -0.5 0
1.45 -0.5 0
1.43333 -0.483333 0
1.45 -0.483333 0
1.45 -0.5 0
1.46667 -0.5 0
1.45 -0.483333 0
1.46667 -0.483333 0
1.46667 -0.5 0
1.48333 -0.5 0
1.46667 -0.483333 0
1.48333 -0.483333 0
1.48333 -0.5 0
1.5 -0.5 0
1.48333 -0.483333 0
1.5 -0.483333 0
1.5 -0.5 0
1.51667 -0.5 0
1.5 -0.483333 0
1.51667 -0.483333 0
1.51667 -0.5 0
1.53333 -0.5 0
1.51667 -0.483333 0
1.53333 -0.483333 0
1.53333 -0.5 0
1.55 -0.5 0
1.53333 -0.483333 0
1.55 -0.483333 0
1.55 -0.5 0
1.56667 -0.5 0
1.55 -0.483333 0
1.56667 -0.483333 0
1.56667 -0.5 0
1.58333 -0.5 0
1.56667 -0.483333 0
1.58333 -0.483333 0
1.58333 -0.5 0
1.6 -0.5 0
1.58333 -0.483333 0
1.6 -0.483333 0
1.6 -0.5 0
1.61667 -0.5 0
1.6 -0.483333 0
1.61667 -0.483333 0
1.61667 -0.5 0
1.63333 -0.5 0
1.61667 -0.483333 0
1.63333 -0.483333 0
1.63333 -0.5 0
1.65 -0.5 0
1.63333 -0.483333 0
1.65 -0.483333 0
1.65 -0.5 0
1.66667 -0.5 0
1.65 -0.483333 0
1.66667 -0.483333 0
1.66667 -0.5 0
1.68333 -0.5 0
1.66667 -0.483333 0
1.68333 -0.483333 0
1.68333 -0.5 0
1.7 -0.5 0
1.68333 -0.483333 0
1.7 -0.483333 0
1.7 -0.5 0
1.71667 -0.5 0
1.7 -0.483333 0
1.71667 -0.483333 0
1.71667 -0.5 0
1.73333 -0.5 0
1.71667 -0.483333 0
1.73333 -0.483333 0
1.73333 -0.5 0
1.75 -0.5 0
1.73333 -0.483333 0
1.75 -0.483333 0
1.75 -0.5 0
1.76667 -0.5 0
1.75 -0.483333 0
1.76667 -0.483333 0
1.76667 -0.5 0
1.78333 -0.5 0
1.76667 -0.483333 0
1.78333 -0.483333 0
1.78333 -0.5 0
1.8 -0.5 0
1.78333 -0.483333 0
1.8 -0.483333 0
1.8 -0.5 0
1.81667 -0.5 0
1.8 -0.483333 0
1.81667 -0.483333 0
1.81667 -0.5 0
1.83333 -0.5 0
1.81667 -0.483333 0
1.83333 -0.483333 0
1.83333 -0.5 0
1.85 -0.5 0
1.83333 -0.483333 0
1.85 -0.483333 0
1.85 -0.5 0
1.86667 -0.5 0
1.85 -0.483333 0
1.86667 -0.483333 0
1.86667 -0.5 0
1.88333 -0.5 0
1.86667 -0.483333 0
1.88333 -0.483333 0
1.88333 -0.5 0
1.9 -0.5 0
1.88333 -0.483333 0
1.9 -0.483333 0
1.9 -0.5 0
1.91667 -0.5 0
1.9 -0.483333 0
1.91667 -0.483333 0
1.91667 -0.5 0
1.93333 -0.5 0
1.91667 -0.483333 0
1.93333 -0.483333 0
1.93333 -0.5 0
1.95 -0.5 0
1.93333 -0.483333 0
1.95 -0.483333 0
1.95 -0.5 0
1.96667 -0.5 0
1.95 -0.483333 0
1.96667 -0.483333 0
1.96667 -0.5 0
1.98333 -0.5 0
1.96667 -0.483333 0
1.98333 -0.483333 0
1.98333 -0.5 0
2 -0.5 0
1.98333 -0.483333 0
2 -0.483333 0
0 -0.483333 0
0.0166667 -0.483333 0
0 -0.466667 0
0.0166667 -0.466667 0
0.0166667 -0.483333 0
0.0333333 -0.483333 0
0.0166667 -0.466667 0
0.0333333 -0.466667 0
0.0333333 -0.483333 0
0.05 -0.483333 0
0.0333333 -0.466667 0
0.05 -0.466667 0
0.05 -0.483333 0
0.0666667 -0.483333 0
0.05 -0.466667 0
0.0666667 -0.466667 0
0.0666667 -0.483333 0
0.0833333 -0.483333 0
0.0666667 -0.466667 0
0.0833333 -0.466667 0
0.0833333 -0.483333 0
0.1 -0.483333 0
0.0833333 -0.466667 0
0.1 -0.466667 0
0.1 -0.483333 0
0.116667 -0.483333 0
0.1 -0.466667 0
0.116667 -0.466667 0
0.116667 -0.483333 0
0.133333 -0.483333 0
0.116667 -0.466667 0
0.133333 -0.466667 0
0.133333 -0.483333 0
0.15 -0.483333 0
0.133333 -0.466667 0
0.15 -0.466667 0
0.15 -0.483333 0
0.166667 -0.483333 0
0.15 -0.466667 0
0.166667 -0.466667 0
0.166667 -0.483333 0
0.183333 -0.483333 0
0.166667 -0.466667 0
0.183333 -0.466667 0
0.183333 -0.483333 0
0.2 -0.483333 0
0.183333 -0.466667 0
0.2 -0.466667 0
0.2 -0.483333 0
0.216667 -0.483333 0
0.2 -0.466667 0
0.216667 -0.466667 0
0.216667 -0.483333 0
0.233333 -0.483333 0
0.216667 -0.466667 0
0.233333 -0.466667 0
0.233333 -0.483333 0
0.25 -0.483333 0
0.233333 -0.466667 0
0.25 -0.466667 0
0.25 -0.483333 0
0.266667 -0.483333 0
0.25 -0.466667 0
0.266667 -0.466667 0
0.266667 -0.483333 0
0.283333 -0.483333 0
0.266667 -0.466667 0
0.283333 -0.466667 0
0.283333 -0.483333 0
0.3 -0.483333 0
0.283333 -0.466667 0
0.3 -0.466667 0
0.3 -0.483333 0
0.316667 -0.483333 0
0.3 -0.466667 0
0.316667 -0.466667 0
0.316667 -0.483333 0
0.333333 -0.483333 0
0.316667 -0.466667 0
0.333333 -0.466667 0
0.333333 -0.483333 0
0.35 -0.483333 0
0.333333 -0.466667 0
0.35 -0.466667 0
0.35 -0.483333 0
0.366667 -0.483333 0
0.35 -0.466667 0
0.366667 -0.466667 0
0.366667 -0.483333 0
0.383333 -0.483333 0
0.366667 -0.466667 0
0.383333 -0.466667 0
0.383333 -0.483333 0
0.4 -0.483333 0
[...]
POINT_DATA 28800
SCALARS x1_displacement double 1
LOOKUP_TABLE default
0 0.000436143 0 0.000234668 0.000436143 0.000877511 0.000234668 0.000525395 0.000877511 0.00130392 0.000525395 0.00079898 0.00130392 0.0017036 0.00079898 0.00105336 0.0017036 0.00206862 0.00105336 0.00128925 0.00206862 0.00239965 0.00128925 0.00150832 0.00239965 0.0027009 0.00150832 0.00171245 0.0027009 0.00297757 0.00171245 0.001904 0.00297757 0.00323347 0.001904 0.00208595 0.00323347 0.00346719 0.00208595 0.00226179 0.00346719 0.00366661 0.00226179 0.00243332 0.00366661 0.00380855 0.00243332 0.00259576 0.00380855 0.00387496 0.00259576 0.00273836 0.00387496 0.00387521 0.00273836 0.00286156 0.00387521 0.0038393 0.00286156 0.00297771 0.0038393 0.00379185 0.00297771 0.00308589 0.00379185 0.00373936 0.00308589 0.00317982 0.00373936 0.00367954 0.00317982 0.00325716 0.00367954 0.00361011 0.00325716 0.00331875 0.00361011 0.00353112 0.00331875 0.00336617 0.00353112 0.00344439 0.00336617 0.00340133 0.00344439 0.00335288 0.00340133 0.00342632 0.00335288 0.00326012 0.00342632 0.00344335 0.00326012 0.00316971 0.00344335 0.00345465 0.00316971 0.00308483 0.00345465 0.00346225 0.00308483 0.00300784 0.00346225 0.00346781 0.00300784 0.00294001 0.00346781 0.00347249 0.00294001 0.00288141 0.00347249 0.00347691 0.00288141 0.00283108 0.00347691 0.00348117 0.00283108 0.0027872 0.00348117 0.00348501 0.0027872 0.00274752 0.00348501 0.0034879 0.00274752 0.00270961 0.0034879 0.00348923 0.00270961 0.00267117 0.00348923 0.0034884 0.00267117 0.0026302 0.0034884 0.00348487 0.0026302 0.00258508 0.00348487 0.00347823 0.00258508 0.00253455 0.00347823 0.00346817 0.00253455 0.00247767 0.00346817 0.00345445 0.00247767 0.00241374 0.00345445 0.00343692 0.00241374 0.00234222 0.00343692 0.00341544 0.00234222 0.00226275 0.00341544 0.00338989 0.00226275 0.00217516 0.00338989 0.00336017 0.00217516 0.0020796 0.00336017 0.00332623 0.0020796 0.0019768 0.00332623 0.0032881 0.0019768 0.00186857 0.0032881 0.00324601 0.00186857 0.00175847 0.00324601 0.00320043 0.00175847 0.00165301 0.00320043 0.00315214 0.00165301 0.00156361 0.00315214 0.00310202 0.00156361 0.00150877 0.00310202 0.00305255 0.00150877 0.00150748 0.00305255 0.00301492 0.00150748 0.0015606 0.00301492 0.00300168 0.0015606 0.00164618 0.00300168 0.00300339 0.00164618 0.00174623 0.00300339 0.00301284 0.00174623 0.00187115 0.00301284 0.00304173 0.00187115 0.00204459 0.00304173 0.00310022 0.00204459 0.00228149 0.00310022 0.00318161 0.00228149 0.0026036 0.00318161 0.00327442 0.0026036 0.00321021 0.00327442 0.00340982 0.00321021 0.00461934 0.00340982 0.00367151 0.00461934 0.00578427 0.00367151 0.00405014 0.00578427 0.00632479 0.00405014 0.00447327 0.00632479 0.00647431 0.00447327 0.00504069 0.00647431 0.00652785 0.00504069 0.00605938 0.00652785 0.00691215 0.00605938 0.00691807 0.00691215 0.00709943 0.00691807 0.00735879 0.00709943 0.0073835 0.00735879 0.00835183 0.0073835 0.0238832 0.00835183 0.0145715 0.0238832 0.0240765 0.0145715 0.0179991 0.0240765 0.0242658 0.0179991 0.0187096 0.0242658 0.0244428 0.0187096 0.0193338 0.0244428 0.0245287 0.0193338 0.0197269 0.0245287 0.0246585 0.0197269 0.0200404 0.0246585 0.02482 0.0200404 0.0203366 0.02482 0.0249687 0.0203366 0.0205999 0.0249687 0.0250729 0.0205999 0.020816 0.0250729 0.0251178 0.020816 0.020978 0.0251178 0.0251004 0.020978 0.0210862 0.0251004 0.0250241 0.0210862 0.0211432 0.0250241 0.0248952 0.0211432 0.0211526 0.0248952 0.0247214 0.0211526 0.0211195 0.0247214 0.0245123 0.0211195 0.0210511 0.0245123 0.0242792 0.0210511 0.0209559 0.0242792 0.0240349 0.0209559 0.0208435 0.0240349 0.0237921 0.0208435 0.0207237 0.0237921 0.0235625 0.0207237 0.0206054 0.0235625 0.0233549 0.0206054 0.020496 0.0233549 0.0231736 0.020496 0.0204002 0.0231736 0.0230162 0.0204002 0.02032 0.0230162 0.0228684 0.02032 0.0202565 0.0228684 0.0226915 0.0202565 0.0202178 0.0226915 0.0223834 0.0202178 0.0202511 0.0223834 0.0217462 0.0202511 0.0204534 0.0217462 0.0211993 0.0204534 0.0206966 0.0211993 0.0209686 0.0206966 0.0208217 0.0209686 0.0208576 0.0208217 0.0208844 0.0208576 0.0208053 0.0208844 0.0209065 0.0208053 0.020781 0.0209065 0.0209067 0.020781 0.0207645 0.0209067 0.0208949 0.0207645 0.0207432 0.0208949 0.0208743 0.0207432 0.0207085 0.0208743 0.0208452 0.0207085 0.020653 0.0208452 0.020807 0.020653 0.0205689 0.020807 0.0207587 0.0205689 0.0204493 0.0207587 0.0206968 0.0204493 0.0202962 0.0206968 0.020607 0.0202962 0.0201336 0.020607 0.0204781 0.0201336 0.0199798 0.0204781 0.020338 0.0199798 0.0198239 0.020338 0.0202016 0.0198239 0.0196745 0.0202016 0.0200822 0.0196745 0.0195338 0.0200822 0.0199754 0.0195338 0.0194168 0.0199754 0.0198792 0.0194168 0.0193313 0.0198792 0.0197898 0.0193313 0.0192893 0.0197898 0.0197064 0.0192893 0.0193029 0.0197064 0.0196244 0.0193029 0.0193857 0.0196244 0.0195414 0.0193857 0.0195477 0.0195414 0.0194539 0.0195477 0.0198054 0.0194539 0.0193525 0.0198054 0.0201676 0.0193525 0.0192382 0.0201676 0.0205265 0.0192382 0.0191497 0.0205265 0.0207675 0.0191497 0.0190909 0.0207675 0.0208668 0.0190909 0.0190553 0.0208668 0.0208843 0.0190553 0.0190367 0 0.000234668 0 9.24997e-05 0.000234668 0.000525395 9.24997e-05 0.00021139 0.000525395 0.00079898 0.00021139 0.000331807 0.00079898 0.00105336 0.000331807 0.000443091 0.00105336 0.00128925 0.000443091 0.00054959 0.00128925 0.00150832 0.00054959 0.000653754 0.00150832 0.00171245 0.000653754 0.000756295 0.00171245 0.001904 0.000756295 0.000858097 0.001904 0.00208595 0.000858097 0.000962813 0.00208595 0.00226179 0.000962813 0.00107944 0.00226179 0.00243332 0.00107944 0.00122273 0.00243332 0.00259576 0.00122273 0.00140265 0.00259576 0.00273836 0.00140265 0.00161967 0.00273836 0.00286156 0.00161967 0.00187931 0.00286156 0.00297771 0.00187931 0.00215711 0.00297771 0.00308589 0.00215711 0.00242227 0.00308589 0.00317982 0.00242227 0.00266031 0.00317982 0.00325716 0.00266031 0.00287206 0.00325716 0.00331875 0.00287206 0.00306126 0.00331875 0.00336617 0.00306126 0.00323099 0.00336617 0.00340133 0.00323099 0.00338324 0.00340133 0.00342632 0.00338324 0.00351952 0.00342632 0.00344335 0.00351952 0.00364115 0.00344335 0.00345465 0.00364115 0.00374939 0.00345465 0.00346225 0.00374939 0.00384551 0.00346225 0.00346781 0.00384551 0.00393078 0.00346781 0.00347249 0.00393078 0.00400636 0.00347249 0.00347691 0.00400636 0.00407332 0.00347691 0.00348117 0.00407332 0.00413262 0.00348117 0.00348501 0.00413262 0.00418522 0.00348501 0.0034879 0.00418522 0.00423203 0.0034879 0.00348923 0.00423203 0.00427401 0.00348923 0.0034884 0.00427401 0.00431205 0.0034884 0.00348487 0.00431205 0.00434701 0.00348487 0.00347823 0.00434701 0.00437967 0.00347823 0.00346817 0.00437967 0.0044107 0.00346817 0.00345445 0.0044107 0.00444062 0.00345445 0.00343692 0.00444062 0.00446986 0.00343692 0.00341544 0.00446986 0.00449867 0.00341544 0.00338989 0.00449867 0.00452719 0.00338989 0.00336017 0.00452719 0.00455529 0.00336017 0.00332623 0.00455529 0.00458256 0.00332623 0.0032881 0.00458256 0.00460804 0.0032881 0.00324601 0.00460804 0.00462999 0.00324601 0.00320043 0.00462999 0.0046454 0.00320043 0.00315214 0.0046454 0.00464932 0.00315214 0.00310202 0.00464932 0.00463353 0.00310202 0.00305255 0.00463353 0.00458525 0.00305255 0.00301492 0.00458525 0.00449618 0.00301492 0.00300168 0.00449618 0.00439444 0.00300168 0.00300339 0.00439444 0.00430587 0.00300339 0.00301284 0.00430587 0.00422069 0.00301284 0.00304173 0.00422069 0.00414935 0.00304173 0.00310022 0.00414935 0.00410193 0.00310022 0.00318161 0.00410193 0.00408176 0.00318161 0.00327442 0.00408176 0.00408132 0.00327442 0.00340982 0.00408132 0.00410446 0.00340982 0.00367151 0.00410446 0.00416867 0.00367151 0.00405014 0.00416867 0.00429348 0.00405014 0.00447327 0.00429348 0.00447446 0.00447327 0.00504069 0.00447446 0.00473443 0.00504069 0.00605938 0.00473443 0.0051583 0.00605938 0.00691807 0.0051583 0.00564279 0.00691807 0.00735879 0.00564279 0.00626546 0.00735879 0.00835183 0.00626546 0.00769988 0.00835183 0.0145715 0.00769988 0.00990488 0.0145715 0.0179991 0.00990488 0.0121654 0.0179991 0.0187096 0.0121654 0.0133289 0.0187096 0.0193338 0.0133289 0.0142106 0.0193338 0.0197269 0.0142106 0.0148888 0.0197269 0.0200404 0.0148888 0.0154428 0.0200404 0.0203366 0.0154428 0.0159235 0.0203366 0.0205999 0.0159235 0.0163397 0.0205999 0.020816 0.0163397 0.0166851 0.020816 0.020978 0.0166851 0.0169685 0.020978 0.0210862 0.0169685 0.0171991 0.0210862 0.0211432 0.0171991 0.0173807 0.0211432 0.0211526 0.0173807 0.0175149 0.0211526 0.0211195 0.0175149 0.0176049 0.0211195 0.0210511 0.0176049 0.017656 0.0210511 0.0209559 0.017656 0.0176753 0.0209559 0.0208435 0.0176753 0.0176712 0.0208435 0.0207237 0.0176712 0.0176528 0.0207237 0.0206054 0.0176528 0.0176288 0.0206054 0.020496 0.0176288 0.0176071 0.020496 0.0204002 0.0176071 0.0175949 0.0204002 0.02032 0.0175949 0.0175995 0.02032 0.0202565 0.0175995 0.0176316 0.0202565 0.0202178 0.0176316 0.01771 0.0202178 0.0202511 0.01771 0.0178515 0.0202511 0.0204534 0.0178515 0.0179828 0.0204534 0.0206966 0.0179828 0.0180792 0.0206966 0.0208217 0.0180792 0.0182059 0.0208217 0.0208844 0.0182059 0.0183401 0.0208844 0.0209065 0.0183401 0.01844 0.0209065 0.0209067 0.01844 0.0185039 0.0209067 0.0208949 0.0185039 0.0185435 0.0208949 0.0208743 0.0185435 0.018569 0.0208743 0.0208452 0.018569 0.0185884 0.0208452 0.020807 0.0185884 0.0186085 0.020807 0.0207587 0.0186085 0.018637 0.0207587 0.0206968 0.018637 0.0186856 0.0206968 0.020607 0.0186856 0.0187796 0.020607 0.0204781 0.0187796 0.018945 0.0204781 0.020338 0.018945 0.0191417 0.020338 0.0202016 0.0191417 0.0193276 0.0202016 0.0200822 0.0193276 0.0194718 0.0200822 0.0199754 0.0194718 0.0195711 0.0199754 0.0198792 0.0195711 0.0196234 0.0198792 0.0197898 0.0196234 0.0196251 0.0197898 0.0197064 0.0196251 0.0195694 0.0197064 0.0196244 0.0195694 0.0194469 0.0196244 0.0195414 0.0194469 0.0192477 0.0195414 0.0194539 0.0192477 0.0189528 0.0194539 0.0193525 0.0189528 0.0185303 0.0193525 0.0192382 0.0185303 0.0179865 0.0192382 0.0191497 0.0179865 0.0175353 0.0191497 0.0190909 0.0175353 0.0173176 0.0190909 0.0190553 0.0173176 0.0172101 0.0190553 0.0190367 0.0172101 0.0171707 0 9.24997e-05 0 -5.15511e-05 9.24997e-05 0.00021139 -5.15511e-05 -9.54548e-05 0.00021139 0.000331807 -9.54548e-05 -0.000138936 0.000331807 0.000443091 -0.000138936 -0.000172099 0.000443091 0.00054959 -0.000172099 -0.000192188 0.00054959 0.000653754 -0.000192188 -0.000199471 0.000653754 0.000756295 -0.000199471 -0.000196128 0.000756295 0.000858097 -0.000196128 -0.000184822 0.000858097 0.000962813 -0.000184822 -0.000164714 0.000962813 0.00107944 -0.000164714 -0.000128403 0.00107944 0.00122273 -0.000128403 -5.97034e-05 0.00122273 0.00140265 -5.97034e-05 6.86096e-05 0.00140265 0.00161967 6.86096e-05 0.000298821 0.00161967 0.00187931 0.000298821 0.000719838 0.00187931 0.00215711 0.000719838 0.00118777 0.00215711 0.00242227 0.00118777 0.00160155 0.00242227 0.00266031 0.00160155 0.00196793 0.00266031 0.00287206 0.00196793 0.00229972 0.00287206 0.00306126 0.00229972 0.00260436 0.00306126 0.00323099 0.00260436 0.00288435 0.00323099 0.00338324 0.00288435 0.00314129 0.00338324 0.00351952 0.00314129 0.00337628 0.00351952 0.00364115 0.00337628 0.00358995 0.00364115 0.00374939 0.00358995 0.00378323 0.00374939 0.00384551 0.00378323 0.00395739 0.00384551 0.00393078 0.00395739 0.00411388 0.00393078 0.00400636 0.00411388 0.00425417 0.00400636 0.00407332 0.00425417 0.00437965 0.00407332 0.00413262 0.00437965 0.00449175 0.00413262 0.00418522 0.00449175 0.00459212 0.00418522 0.00423203 0.00459212 0.00468265 0.00423203 0.00427401 0.00468265 0.00476542 0.00427401 0.00431205 0.00476542 0.0048426 0.00431205 0.00434701 0.0048426 0.00491629 0.00434701 0.00437967 0.00491629 0.00498841 0.00437967 0.0044107 0.00498841 0.00506064 0.0044107 0.00444062 0.00506064 0.00513429 0.00444062 0.00446986 0.00513429 0.00521041 0.00446986 0.00449867 0.00521041 0.0052897 0.00449867 0.00452719 0.0052897 0.00537254 0.00452719 0.00455529 0.00537254 0.00545887 0.00455529 0.00458256 0.00545887 0.00554787 0.00458256 0.00460804 0.00554787 0.00563764 0.00460804 0.00462999 0.00563764 0.00572456 0.00462999 0.0046454 0.00572456 0.00580268 0.0046454 0.00464932 0.00580268 0.00586322 0.00464932 0.00463353 0.00586322 0.00589453 0.00463353 0.00458525 0.00589453 0.00588078 0.00458525 0.00449618 0.00588078 0.00579724 0.00449618 0.00439444 0.00579724 0.00563521 0.00439444 0.00430587 0.00563521 0.00549843 0.00430587 0.00422069 0.00549843 0.00538307 0.00422069 0.00414935 0.00538307 0.00526296 0.00414935 0.00410193 0.00526296 0.0051176 0.00410193 0.00408176 0.0051176 0.00497711 0.00408176 0.00408132 0.00497711 0.00487285 0.00408132 0.00410446 0.00487285 0.00478957 0.00410446 0.00416867 0.00478957 0.00473608 0.00416867 0.00429348 0.00473608 0.00472241 0.00429348 0.00447446 0.00472241 0.00474091 0.00447446 0.00473443 0.00474091 0.00478694 0.00473443 0.0051583 0.00478694 0.00488948 0.0051583 0.00564279 0.00488948 0.00506499 0.00564279 0.00626546 0.00506499 0.00533141 0.00626546 0.00769988 0.00533141 0.00577755 0.00769988 0.00990488 0.00577755 0.00631862 0.00990488 0.0121654 0.00631862 0.00712559 0.0121654 0.0133289 0.00712559 0.00841099 0.0133289 0.0142106 0.00841099 0.00944245 0.0142106 0.0148888 0.00944245 0.0102667 0.0148888 0.0154428 0.0102667 0.010972 0.0154428 0.0159235 0.010972 0.0116362 0.0159235 0.0163397 0.0116362 0.0122008 0.0163397 0.0166851 0.0122008 0.0126688 0.0166851 0.0169685 0.0126688 0.0130731 0.0169685 0.0171991 0.0130731 0.0134281 0.0171991 0.0173807 0.0134281 0.0137306 0.0173807 0.0175149 0.0137306 0.0139804 0.0175149 0.0176049 0.0139804 0.0141807 0.0176049 0.017656 0.0141807 0.0143358 0.017656 0.0176753 0.0143358 0.0144522 0.0176753 0.0176712 0.0144522 0.0145387 0.0176712 0.0176528 0.0145387 0.0146048 0.0176528 0.0176288 0.0146048 0.0146603 0.0176288 0.0176071 0.0146603 0.0147144 0.0176071 0.0175949 0.0147144 0.0147756 0.0175949 0.0175995 0.0147756 0.0148522 0.0175995 0.0176316 0.0148522 0.0149525 0.0176316 0.01771 0.0149525 0.0150799 0.01771 0.0178515 0.0150799 0.0152138 0.0178515 0.0179828 0.0152138 0.0153196 0.0179828 0.0180792 0.0153196 0.0153949 0.0180792 0.0182059 0.0153949 0.0154816 0.0182059 0.0183401 0.0154816 0.015598 0.0183401 0.01844 0.015598 0.0157155 0.01844 0.0185039 0.0157155 0.0158144 0.0185039 0.0185435 0.0158144 0.0158939 0.0185435 0.018569 0.0158939 0.0159609 0.018569 0.0185884 0.0159609 0.0160238 0.0185884 0.0186085 0.0160238 0.0160911 0.0186085 0.018637 0.0160911 0.0161709 0.018637 0.0186856 0.0161709 0.0162703 0.0186856 0.0187796 0.0162703 0.0163864 0.0187796 0.018945 0.0163864 0.0165009 0.018945 0.0191417 0.0165009 0.0166174 0.0191417 0.0193276 0.0166174 0.0167346 0.0193276 0.0194718 0.0167346 0.0168384 0.0194718 0.0195711 0.0168384 0.0169135 0.0195711 0.0196234 0.0169135 0.0169438 0.0196234 0.0196251 0.0169438 0.0169194 0.0196251 0.0195694 0.0169194 0.0168321 0.0195694 0.0194469 0.0168321 0.0166777 0.0194469 0.0192477 0.0166777 0.0164527 0.0192477 0.0189528 0.0164527 0.016165 0.0189528 0.0185303 0.016165 0.0158295 0.0185303 0.0179865 0.0158295 0.0154543 0.0179865 0.0175353 0.0154543 0.0153254 0.0175353 0.0173176 0.0153254 0.0152679 0.0173176 0.0172101 0.0152679 0.0152395 0.0172101 0.0171707 0.0152395 0.015235 0 -5.15511e-05 0 -0.000225162 -5.15511e-05 -9.54548e-05 -0.000225162 -0.000464983 -9.54548e-05 -0.000138936 -0.000464983 -0.000670974 -0.000138936 -0.000172099 -0.000670974 -0.000840006 -0.000172099 -0.000192188 -0.000840006 -0.000976801 -0.000192188 -0.000199471 -0.000976801 -0.00108458 -0.000199471 -0.000196128 -0.00108458 -0.00117016 -0.000196128 -0.000184822 -0.00117016 -0.00124351 -0.000184822 -0.000164714 -0.00124351 -0.00130928 -0.000164714 -0.000128403 -0.00130928 -0.00136769 -0.000128403 -5.97034e-05 -0.00136769 -0.00141895 -5.97034e-05 6.86096e-05 -0.00141895 -0.00146264 6.86096e-05 0.000298821 -0.00146264 -0.00148107 0.000298821 0.000719838 -0.00148107 -0.00140843 0.000719838 0.00118777 -0.00140843 -0.00108593 0.00118777 0.00160155 -0.00108593 -0.000705857 0.00160155 0.00196793 -0.000705857 -0.000352491 0.00196793 0.00229972 -0.000352491 3.35297e-06 0.00229972 0.00260436 3.35297e-06 0.000334446 0.00260436 0.00288435 0.000334446 0.000634544 0.00288435 0.00314129 0.000634544 0.000906782 0.00314129 0.00337628 0.000906782 0.00114863 0.00337628 0.00358995 0.00114863 0.00136156 0.00358995 0.00378323 0.00136156 0.00155098 0.00378323 0.00395739 0.00155098 0.00172345 0.00395739 0.00411388 0.00172345 0.00188547 0.00411388 0.00425417 0.00188547 0.00204113 0.00425417 0.00437965 0.00204113 0.0021912 0.00437965 0.00449175 0.0021912 0.00233455 0.00449175 0.00459212 0.00233455 0.00246997 0.00459212 0.00468265 0.00246997 0.00259713 0.00468265 0.00476542 0.00259713 0.00271676 0.00476542 0.0048426 0.00271676 0.00283052 0.0048426 0.00491629 0.00283052 0.00294087 0.00491629 0.00498841 0.00294087 0.00305066 0.00498841 0.00506064 0.00305066 0.00316259 0.00506064 0.00513429 0.00316259 0.00327893 0.00513429 0.00521041 0.00327893 0.00340148 0.00521041 0.0052897 0.00340148 0.00353161 0.0052897 0.00537254 0.00353161 0.00367031 0.00537254 0.00545887 0.00367031 0.00381801 0.00545887 0.00554787 0.00381801 0.00397425 0.00554787 0.00563764 0.00397425 0.00413708 0.00563764 0.00572456 0.00413708 0.00430233 0.00572456 0.00580268 0.00430233 0.00446384 0.00580268 0.00586322 0.00446384 0.00461628 0.00586322 0.00589453 0.00461628 0.00476414 0.00589453 0.00588078 0.00476414 0.0049441 0.00588078 0.00579724 0.0049441 0.00527086 0.00579724 0.00563521 0.00527086 0.00579457 0.00563521 0.00549843 0.00579457 0.00608113 0.00549843 0.00538307 0.00608113 0.00615164 0.00538307 0.00526296 0.00615164 0.00609137 0.00526296 0.0051176 0.00609137 0.00593672 0.0051176 0.00497711 0.00593672 0.0057095 0.00497711 0.00487285 0.0057095 0.00554123 0.00487285 0.00478957 0.00554123 0.00539297 0.00478957 0.00473608 0.00539297 0.00522544 0.00473608 0.00472241 0.00522544 0.00505725 0.00472241 0.00474091 0.00505725 0.00491734 0.00474091 0.00478694 0.00491734 0.00479692 0.00478694 0.00488948 0.00479692 0.0047183 0.00488948 0.00506499 0.0047183 0.00469845 0.00506499 0.00533141 0.00469845 0.00471584 0.00533141 0.00577755 0.00471584 0.00475493 0.00577755 0.00631862 0.00475493 0.00481672 0.00631862 0.00712559 0.00481672 0.00489602 0.00712559 0.00841099 0.00489602 0.00505045 0.00841099 0.00944245 0.00505045 0.00532828 0.00944245 0.0102667 0.00532828 0.00584061 0.0102667 0.010972 0.00584061 0.00673105 0.010972 0.0116362 0.00673105 0.00751817 0.0116362 0.0122008 0.00751817 0.00817167 0.0122008 0.0126688 0.00817167 0.00874255 0.0126688 0.0130731 0.00874255 0.00928922 0.0130731 0.0134281 0.00928922 0.00977557 0.0134281 0.0137306 0.00977557 0.0101931 0.0137306 0.0139804 0.0101931 0.0105524 0.0139804 0.0141807 0.0105524 0.010854 0.0141807 0.0143358 0.010854 0.0111013 0.0143358 0.0144522 0.0111013 0.0113018 0.0144522 0.0145387 0.0113018 0.0114649 0.0145387 0.0146048 0.0114649 0.0116015 0.0146048 0.0146603 0.0116015 0.0117231 0.0146603 0.0147144 0.0117231 0.0118398 0.0147144 0.0147756 0.0118398 0.0119601 0.0147756 0.0148522 0.0119601 0.0120906 0.0148522 0.0149525 0.0120906 0.0122338 0.0149525 0.0150799 0.0122338 0.0123837 0.0150799 0.0152138 0.0123837 0.0125241 0.0152138 0.0153196 0.0125241 0.0126394 0.0153196 0.0153949 0.0126394 0.0127335 0.0153949 0.0154816 0.0127335 0.0128282 0.0154816 0.015598 0.0128282 0.0129366 0.015598 0.0157155 0.0129366 0.0130524 0.0157155 0.0158144 0.0130524 0.013163 0.0158144 0.0158939 0.013163 0.0132635 0.0158939 0.0159609 0.0132635 0.013356 0.0159609 0.0160238 0.013356 0.0134462 0.0160238 0.0160911 0.0134462 0.0135405 0.0160911 0.0161709 0.0135405 0.0136432 0.0161709 0.0162703 0.0136432 0.0137537 0.0162703 0.0163864 0.0137537 0.0138637 0.0163864 0.0165009 0.0138637 0.0139645 0.0165009 0.0166174 0.0139645 0.0140542 0.0166174 0.0167346 0.0140542 0.0141343 0.0167346 0.0168384 0.0141343 0.0142001 0.0168384 0.0169135 0.0142001 0.0142397 0.0169135 0.0169438 0.0142397 0.0142395 0.0169438 0.0169194 0.0142395 0.0141892 0.0169194 0.0168321 0.0141892 0.0140854 0.0168321 0.0166777 0.0140854 0.0139