# vtk DataFile Version 3.0
#This file was generated by the deal.II library on 2021/2/12 at 0:19:01
ASCII
DATASET UNSTRUCTURED_GRID

POINTS 28800 double
0 -0.5 0
0.0166667 -0.5 0
0 -0.483333 0
0.0166667 -0.483333 0
0.0166667 -0.5 0
0.0333333 -0.5 0
0.0166667 -0.483333 0
0.0333333 -0.483333 0
0.0333333 -0.5 0
0.05 -0.5 0
0.0333333 -0.483333 0
0.05 -0.483333 0
0.05 -0.5 0
0.0666667 -0.5 0
0.05 -0.483333 0
0.0666667 -0.483333 0
0.0666667 -0.5 0
0.0833333 -0.5 0
0.0666667 -0.483333 0
0.0833333 -0.483333 0
0.0833333 -0.5 0
0.1 -0.5 0
0.0833333 -0.483333 0
0.1 -0.483333 0
0.1 -0.5 0
0.116667 -0.5 0
0.1 -0.483333 0
0.116667 -0.483333 0
0.116667 -0.5 0
0.133333 -0.5 0
0.116667 -0.483333 0
0.133333 -0.483333 0
0.133333 -0.5 0
0.15 -0.5 0
0.133333 -0.483333 0
0.15 -0.483333 0
0.15 -0.5 0
0.166667 -0.5 0
0.15 -0.483333 0
0.166667 -0.483333 0
0.166667 -0.5 0
0.183333 -0.5 0
0.166667 -0.483333 0
0.183333 -0.483333 0
0.183333 -0.5 0
0.2 -0.5 0
0.183333 -0.483333 0
0.2 -0.483333 0
0.2 -0.5 0
0.216667 -0.5 0
0.2 -0.483333 0
0.216667 -0.483333 0
0.216667 -0.5 0
0.233333 -0.5 0
0.216667 -0.483333 0
0.233333 -0.483333 0
0.233333 -0.5 0
0.25 -0.5 0
0.233333 -0.483333 0
0.25 -0.483333 0
0.25 -0.5 0
0.266667 -0.5 0
0.25 -0.483333 0
0.266667 -0.483333 0
0.266667 -0.5 0
0.283333 -0.5 0
0.266667 -0.483333 0
0.283333 -0.483333 0
0.283333 -0.5 0
0.3 -0.5 0
0.283333 -0.483333 0
0.3 -0.483333 0
0.3 -0.5 0
0.316667 -0.5 0
0.3 -0.483333 0
0.316667 -0.483333 0
0.316667 -0.5 0
0.333333 -0.5 0
0.316667 -0.483333 0
0.333333 -0.483333 0
0.333333 -0.5 0
0.35 -0.5 0
0.333333 -0.483333 0
0.35 -0.483333 0
0.35 -0.5 0
0.366667 -0.5 0
0.35 -0.483333 0
0.366667 -0.483333 0
0.366667 -0.5 0
0.383333 -0.5 0
0.366667 -0.483333 0
0.383333 -0.483333 0
0.383333 -0.5 0
0.4 -0.5 0
0.383333 -0.483333 0
0.4 -0.483333 0
0.4 -0.5 0
0.416667 -0.5 0
0.4 -0.483333 0
0.416667 -0.483333 0
0.416667 -0.5 0
0.433333 -0.5 0
0.416667 -0.483333 0
0.433333 -0.483333 0
0.433333 -0.5 0
0.45 -0.5 0
0.433333 -0.483333 0
0.45 -0.483333 0
0.45 -0.5 0
0.466667 -0.5 0
0.45 -0.483333 0
0.466667 -0.483333 0
0.466667 -0.5 0
0.483333 -0.5 0
0.466667 -0.483333 0
0.483333 -0.483333 0
0.483333 -0.5 0
0.5 -0.5 0
0.483333 -0.483333 0
0.5 -0.483333 0
0.5 -0.5 0
0.516667 -0.5 0
0.5 -0.483333 0
0.516667 -0.483333 0
0.516667 -0.5 0
0.533333 -0.5 0
0.516667 -0.483333 0
0.533333 -0.483333 0
0.533333 -0.5 0
0.55 -0.5 0
0.533333 -0.483333 0
0.55 -0.483333 0
0.55 -0.5 0
0.566667 -0.5 0
0.55 -0.483333 0
0.566667 -0.483333 0
0.566667 -0.5 0
0.583333 -0.5 0
0.566667 -0.483333 0
0.583333 -0.483333 0
0.583333 -0.5 0
0.6 -0.5 0
0.583333 -0.483333 0
0.6 -0.483333 0
0.6 -0.5 0
0.616667 -0.5 0
0.6 -0.483333 0
0.616667 -0.483333 0
0.616667 -0.5 0
0.633333 -0.5 0
0.616667 -0.483333 0
0.633333 -0.483333 0
0.633333 -0.5 0
0.65 -0.5 0
0.633333 -0.483333 0
0.65 -0.483333 0
0.65 -0.5 0
0.666667 -0.5 0
0.65 -0.483333 0
0.666667 -0.483333 0
0.666667 -0.5 0
0.683333 -0.5 0
0.666667 -0.483333 0
0.683333 -0.483333 0
0.683333 -0.5 0
0.7 -0.5 0
0.683333 -0.483333 0
0.7 -0.483333 0
0.7 -0.5 0
0.716667 -0.5 0
0.7 -0.483333 0
0.716667 -0.483333 0
0.716667 -0.5 0
0.733333 -0.5 0
0.716667 -0.483333 0
0.733333 -0.483333 0
0.733333 -0.5 0
0.75 -0.5 0
0.733333 -0.483333 0
0.75 -0.483333 0
0.75 -0.5 0
0.766667 -0.5 0
0.75 -0.483333 0
0.766667 -0.483333 0
0.766667 -0.5 0
0.783333 -0.5 0
0.766667 -0.483333 0
0.783333 -0.483333 0
0.783333 -0.5 0
0.8 -0.5 0
0.783333 -0.483333 0
0.8 -0.483333 0
0.8 -0.5 0
0.816667 -0.5 0
0.8 -0.483333 0
0.816667 -0.483333 0
0.816667 -0.5 0
0.833333 -0.5 0
0.816667 -0.483333 0
0.833333 -0.483333 0
0.833333 -0.5 0
0.85 -0.5 0
0.833333 -0.483333 0
0.85 -0.483333 0
0.85 -0.5 0
0.866667 -0.5 0
0.85 -0.483333 0
0.866667 -0.483333 0
0.866667 -0.5 0
0.883333 -0.5 0
0.866667 -0.483333 0
0.883333 -0.483333 0
0.883333 -0.5 0
0.9 -0.5 0
0.883333 -0.483333 0
0.9 -0.483333 0
0.9 -0.5 0
0.916667 -0.5 0
0.9 -0.483333 0
0.916667 -0.483333 0
0.916667 -0.5 0
0.933333 -0.5 0
0.916667 -0.483333 0
0.933333 -0.483333 0
0.933333 -0.5 0
0.95 -0.5 0
0.933333 -0.483333 0
0.95 -0.483333 0
0.95 -0.5 0
0.966667 -0.5 0
0.95 -0.483333 0
0.966667 -0.483333 0
0.966667 -0.5 0
0.983333 -0.5 0
0.966667 -0.483333 0
0.983333 -0.483333 0
0.983333 -0.5 0
1 -0.5 0
0.983333 -0.483333 0
1 -0.483333 0
1 -0.5 0
1.01667 -0.5 0
1 -0.483333 0
1.01667 -0.483333 0
1.01667 -0.5 0
1.03333 -0.5 0
1.01667 -0.483333 0
1.03333 -0.483333 0
1.03333 -0.5 0
1.05 -0.5 0
1.03333 -0.483333 0
1.05 -0.483333 0
1.05 -0.5 0
1.06667 -0.5 0
1.05 -0.483333 0
1.06667 -0.483333 0
1.06667 -0.5 0
1.08333 -0.5 0
1.06667 -0.483333 0
1.08333 -0.483333 0
1.08333 -0.5 0
1.1 -0.5 0
1.08333 -0.483333 0
1.1 -0.483333 0
1.1 -0.5 0
1.11667 -0.5 0
1.1 -0.483333 0
1.11667 -0.483333 0
1.11667 -0.5 0
1.13333 -0.5 0
1.11667 -0.483333 0
1.13333 -0.483333 0
1.13333 -0.5 0
1.15 -0.5 0
1.13333 -0.483333 0
1.15 -0.483333 0
1.15 -0.5 0
1.16667 -0.5 0
1.15 -0.483333 0
1.16667 -0.483333 0
1.16667 -0.5 0
1.18333 -0.5 0
1.16667 -0.483333 0
1.18333 -0.483333 0
1.18333 -0.5 0
1.2 -0.5 0
1.18333 -0.483333 0
1.2 -0.483333 0
1.2 -0.5 0
1.21667 -0.5 0
1.2 -0.483333 0
1.21667 -0.483333 0
1.21667 -0.5 0
1.23333 -0.5 0
1.21667 -0.483333 0
1.23333 -0.483333 0
1.23333 -0.5 0
1.25 -0.5 0
1.23333 -0.483333 0
1.25 -0.483333 0
1.25 -0.5 0
1.26667 -0.5 0
1.25 -0.483333 0
1.26667 -0.483333 0
1.26667 -0.5 0
1.28333 -0.5 0
1.26667 -0.483333 0
1.28333 -0.483333 0
1.28333 -0.5 0
1.3 -0.5 0
1.28333 -0.483333 0
1.3 -0.483333 0
1.3 -0.5 0
1.31667 -0.5 0
1.3 -0.483333 0
1.31667 -0.483333 0
1.31667 -0.5 0
1.33333 -0.5 0
1.31667 -0.483333 0
1.33333 -0.483333 0
1.33333 -0.5 0
1.35 -0.5 0
1.33333 -0.483333 0
1.35 -0.483333 0
1.35 -0.5 0
1.36667 -0.5 0
1.35 -0.483333 0
1.36667 -0.483333 0
1.36667 -0.5 0
1.38333 -0.5 0
1.36667 -0.483333 0
1.38333 -0.483333 0
1.38333 -0.5 0
1.4 -0.5 0
1.38333 -0.483333 0
1.4 -0.483333 0
1.4 -0.5 0
1.41667 -0.5 0
1.4 -0.483333 0
1.41667 -0.483333 0
1.41667 -0.5 0
1.43333 -0.5 0
1.41667 -0.483333 0
1.43333 -0.483333 0
1.43333 -0.5 0
1.45 -0.5 0
1.43333 -0.483333 0
1.45 -0.483333 0
1.45 -0.5 0
1.46667 -0.5 0
1.45 -0.483333 0
1.46667 -0.483333 0
1.46667 -0.5 0
1.48333 -0.5 0
1.46667 -0.483333 0
1.48333 -0.483333 0
1.48333 -0.5 0
1.5 -0.5 0
1.48333 -0.483333 0
1.5 -0.483333 0
1.5 -0.5 0
1.51667 -0.5 0
1.5 -0.483333 0
1.51667 -0.483333 0
1.51667 -0.5 0
1.53333 -0.5 0
1.51667 -0.483333 0
1.53333 -0.483333 0
1.53333 -0.5 0
1.55 -0.5 0
1.53333 -0.483333 0
1.55 -0.483333 0
1.55 -0.5 0
1.56667 -0.5 0
1.55 -0.483333 0
1.56667 -0.483333 0
1.56667 -0.5 0
1.58333 -0.5 0
1.56667 -0.483333 0
1.58333 -0.483333 0
1.58333 -0.5 0
1.6 -0.5 0
1.58333 -0.483333 0
1.6 -0.483333 0
1.6 -0.5 0
1.61667 -0.5 0
1.6 -0.483333 0
1.61667 -0.483333 0
1.61667 -0.5 0
1.63333 -0.5 0
1.61667 -0.483333 0
1.63333 -0.483333 0
1.63333 -0.5 0
1.65 -0.5 0
1.63333 -0.483333 0
1.65 -0.483333 0
1.65 -0.5 0
1.66667 -0.5 0
1.65 -0.483333 0
1.66667 -0.483333 0
1.66667 -0.5 0
1.68333 -0.5 0
1.66667 -0.483333 0
1.68333 -0.483333 0
1.68333 -0.5 0
1.7 -0.5 0
1.68333 -0.483333 0
1.7 -0.483333 0
1.7 -0.5 0
1.71667 -0.5 0
1.7 -0.483333 0
1.71667 -0.483333 0
1.71667 -0.5 0
1.73333 -0.5 0
1.71667 -0.483333 0
1.73333 -0.483333 0
1.73333 -0.5 0
1.75 -0.5 0
1.73333 -0.483333 0
1.75 -0.483333 0
1.75 -0.5 0
1.76667 -0.5 0
1.75 -0.483333 0
1.76667 -0.483333 0
1.76667 -0.5 0
1.78333 -0.5 0
1.76667 -0.483333 0
1.78333 -0.483333 0
1.78333 -0.5 0
1.8 -0.5 0
1.78333 -0.483333 0
1.8 -0.483333 0
1.8 -0.5 0
1.81667 -0.5 0
1.8 -0.483333 0
1.81667 -0.483333 0
1.81667 -0.5 0
1.83333 -0.5 0
1.81667 -0.483333 0
1.83333 -0.483333 0
1.83333 -0.5 0
1.85 -0.5 0
1.83333 -0.483333 0
1.85 -0.483333 0
1.85 -0.5 0
1.86667 -0.5 0
1.85 -0.483333 0
1.86667 -0.483333 0
1.86667 -0.5 0
1.88333 -0.5 0
1.86667 -0.483333 0
1.88333 -0.483333 0
1.88333 -0.5 0
1.9 -0.5 0
1.88333 -0.483333 0
1.9 -0.483333 0
1.9 -0.5 0
1.91667 -0.5 0
1.9 -0.483333 0
1.91667 -0.483333 0
1.91667 -0.5 0
1.93333 -0.5 0
1.91667 -0.483333 0
1.93333 -0.483333 0
1.93333 -0.5 0
1.95 -0.5 0
1.93333 -0.483333 0
1.95 -0.483333 0
1.95 -0.5 0
1.96667 -0.5 0
1.95 -0.483333 0
1.96667 -0.483333 0
1.96667 -0.5 0
1.98333 -0.5 0
1.96667 -0.483333 0
1.98333 -0.483333 0
1.98333 -0.5 0
2 -0.5 0
1.98333 -0.483333 0
2 -0.483333 0
0 -0.483333 0
0.0166667 -0.483333 0
0 -0.466667 0
0.0166667 -0.466667 0
0.0166667 -0.483333 0
0.0333333 -0.483333 0
0.0166667 -0.466667 0
0.0333333 -0.466667 0
0.0333333 -0.483333 0
0.05 -0.483333 0
0.0333333 -0.466667 0
0.05 -0.466667 0
0.05 -0.483333 0
0.0666667 -0.483333 0
0.05 -0.466667 0
0.0666667 -0.466667 0
0.0666667 -0.483333 0
0.0833333 -0.483333 0
0.0666667 -0.466667 0
0.0833333 -0.466667 0
0.0833333 -0.483333 0
0.1 -0.483333 0
0.0833333 -0.466667 0
0.1 -0.466667 0
0.1 -0.483333 0
0.116667 -0.483333 0
0.1 -0.466667 0
0.116667 -0.466667 0
0.116667 -0.483333 0
0.133333 -0.483333 0
0.116667 -0.466667 0
0.133333 -0.466667 0
0.133333 -0.483333 0
0.15 -0.483333 0
0.133333 -0.466667 0
0.15 -0.466667 0
0.15 -0.483333 0
0.166667 -0.483333 0
0.15 -0.466667 0
0.166667 -0.466667 0
0.166667 -0.483333 0
0.183333 -0.483333 0
0.166667 -0.466667 0
0.183333 -0.466667 0
0.183333 -0.483333 0
0.2 -0.483333 0
0.183333 -0.466667 0
0.2 -0.466667 0
0.2 -0.483333 0
0.216667 -0.483333 0
0.2 -0.466667 0
0.216667 -0.466667 0
0.216667 -0.483333 0
0.233333 -0.483333 0
0.216667 -0.466667 0
0.233333 -0.466667 0
0.233333 -0.483333 0
0.25 -0.483333 0
0.233333 -0.466667 0
0.25 -0.466667 0
0.25 -0.483333 0
0.266667 -0.483333 0
0.25 -0.466667 0
0.266667 -0.466667 0
0.266667 -0.483333 0
0.283333 -0.483333 0
0.266667 -0.466667 0
0.283333 -0.466667 0
0.283333 -0.483333 0
0.3 -0.483333 0
0.283333 -0.466667 0
0.3 -0.466667 0
0.3 -0.483333 0
0.316667 -0.483333 0
0.3 -0.466667 0
0.316667 -0.466667 0
0.316667 -0.483333 0
0.333333 -0.483333 0
0.316667 -0.466667 0
0.333333 -0.466667 0
0.333333 -0.483333 0
0.35 -0.483333 0
0.333333 -0.466667 0
0.35 -0.466667 0
0.35 -0.483333 0
0.366667 -0.483333 0
0.35 -0.466667 0
0.366667 -0.466667 0
0.366667 -0.483333 0
0.383333 -0.483333 0
0.366667 -0.466667 0
0.383333 -0.466667 0
0.383333 -0.483333 0
0.4 -0.483333 0
[...]
POINT_DATA 28800
SCALARS x1_displacement double 1
LOOKUP_TABLE default
0 0.00113268 0 0.00241062 0.00113268 0.00320802 0.00241062 0.00425335 0.00320802 0.00557441 0.00425335 0.00620014 0.00557441 0.00793511 0.00620014 0.00821089 0.00793511 0.0102288 0.00821089 0.0102359 0.0102288 0.0124404 0.0102359 0.012247 0.0124404 0.0145763 0.012247 0.0142337 0.0145763 0.0166499 0.0142337 0.0161946 0.0166499 0.0186761 0.0161946 0.0181334 0.0186761 0.0206696 0.0181334 0.0200556 0.0206696 0.0226431 0.0200556 0.0219674 0.0226431 0.0246079 0.0219674 0.0238747 0.0246079 0.0265737 0.0238747 0.0257831 0.0265737 0.0285478 0.0257831 0.0276968 0.0285478 0.0305357 0.0276968 0.0296193 0.0305357 0.0325399 0.0296193 0.031552 0.0325399 0.0345602 0.031552 0.0334949 0.0345602 0.0365939 0.0334949 0.035446 0.0365939 0.0386364 0.035446 0.0374022 0.0386364 0.040682 0.0374022 0.03936 0.040682 0.0427257 0.03936 0.0413159 0.0427257 0.0447631 0.0413159 0.0432671 0.0447631 0.0467914 0.0432671 0.0452117 0.0467914 0.0488089 0.0452117 0.0471485 0.0488089 0.0508146 0.0471485 0.0490768 0.0508146 0.0528083 0.0490768 0.0509964 0.0528083 0.0547899 0.0509964 0.0529071 0.0547899 0.0567598 0.0529071 0.0548089 0.0567598 0.0587178 0.0548089 0.0567018 0.0587178 0.060664 0.0567018 0.0585858 0.060664 0.0625984 0.0585858 0.0604607 0.0625984 0.0645206 0.0604607 0.0623265 0.0645206 0.0664302 0.0623265 0.0641828 0.0664302 0.0683267 0.0641828 0.0660293 0.0683267 0.0702095 0.0660293 0.0678658 0.0702095 0.072078 0.0678658 0.0696919 0.072078 0.0739322 0.0696919 0.0715078 0.0739322 0.0757727 0.0715078 0.0733137 0.0757727 0.0776006 0.0733137 0.0751105 0.0776006 0.0794183 0.0751105 0.0768998 0.0794183 0.0812287 0.0768998 0.0786834 0.0812287 0.0830361 0.0786834 0.0804641 0.0830361 0.0848448 0.0804641 0.0822446 0.0848448 0.0866596 0.0822446 0.0840281 0.0866596 0.0884845 0.0840281 0.085817 0.0884845 0.0903223 0.085817 0.0876132 0.0903223 0.0921739 0.0876132 0.0894173 0.0921739 0.0940382 0.0894173 0.0912288 0.0940382 0.0959127 0.0912288 0.0930459 0.0959127 0.0977936 0.0930459 0.0948664 0.0977936 0.0996771 0.0948664 0.0966878 0.0996771 0.10156 0.0966878 0.0985082 0.10156 0.103439 0.0985082 0.100326 0.103439 0.105314 0.100326 0.102141 0.105314 0.107183 0.102141 0.103951 0.107183 0.109045 0.103951 0.105757 0.109045 0.110902 0.105757 0.107559 0.110902 0.112753 0.107559 0.109357 0.112753 0.114597 0.109357 0.11115 0.114597 0.116436 0.11115 0.112939 0.116436 0.118269 0.112939 0.114723 0.118269 0.120095 0.114723 0.116503 0.120095 0.121916 0.116503 0.118279 0.121916 0.123731 0.118279 0.12005 0.123731 0.12554 0.12005 0.121818 0.12554 0.127343 0.121818 0.12358 0.127343 0.129141 0.12358 0.125339 0.129141 0.130932 0.125339 0.127093 0.130932 0.132718 0.127093 0.128843 0.132718 0.134497 0.128843 0.130589 0.134497 0.136271 0.130589 0.13233 0.136271 0.138039 0.13233 0.134067 0.138039 0.139801 0.134067 0.135799 0.139801 0.141557 0.135799 0.137528 0.141557 0.143308 0.137528 0.139252 0.143308 0.145052 0.139252 0.140971 0.145052 0.146791 0.140971 0.142687 0.146791 0.148524 0.142687 0.144398 0.148524 0.15025 0.144398 0.146105 0.15025 0.151971 0.146105 0.147807 0.151971 0.153687 0.147807 0.149505 0.153687 0.155396 0.149505 0.151199 0.155396 0.157099 0.151199 0.152888 0.157099 0.158797 0.152888 0.154574 0.158797 0.160488 0.154574 0.156254 0.160488 0.162174 0.156254 0.157931 0.162174 0.163854 0.157931 0.159603 0.163854 0.165528 0.159603 0.161271 0.165528 0.167196 0.161271 0.162935 0.167196 0.168858 0.162935 0.164594 0.168858 0.170515 0.164594 0.166249 0.170515 0.172165 0.166249 0.1679 0.172165 0.17381 0.1679 0.169546 0.17381 0.175448 0.169546 0.171188 0.175448 0.17708 0.171188 0.172825 0.17708 0.178707 0.172825 0.174458 0.178707 0.180327 0.174458 0.176087 0.180327 0.18194 0.176087 0.177712 0.18194 0.183549 0.177712 0.179333 0.183549 0.185152 0.179333 0.180951 0.185152 0.186755 0.180951 0.182567 0.186755 0.188359 0.182567 0.184184 0.188359 0.189973 0.184184 0.185805 0.189973 0.191605 0.185805 0.187435 0.191605 0.193267 0.187435 0.18908 0.193267 0.194968 0.18908 0.190744 0.194968 0.196717 0.190744 0.19243 0.196717 0.198516 0.19243 0.194138 0.198516 0.200361 0.194138 0.195864 0.200361 0.202242 0.195864 0.197597 0.202242 0.204144 0.197597 0.199324 0.204144 0.206049 0.199324 0.201031 0.206049 0.207943 0.201031 0.202699 0.207943 0.209817 0.202699 0.204319 0.209817 0.211657 0.204319 0.205878 0.211657 0.213449 0.205878 0.207346 0.213449 0.215164 0.207346 0.208642 0.215164 0.21699 0.208642 0.209687 0.21699 0.217728 0.209687 0.210108 0.217728 0.217648 0.210108 0.210095 0 0.00241062 0 0.00254394 0.00241062 0.00425335 0.00254394 0.00468674 0.00425335 0.00620014 0.00468674 0.00658273 0.00620014 0.00821089 0.00658273 0.00843112 0.00821089 0.0102359 0.00843112 0.0102727 0.0102359 0.012247 0.0102727 0.0121148 0.012247 0.0142337 0.0121148 0.0139565 0.0142337 0.0161946 0.0139565 0.0157962 0.0161946 0.0181334 0.0157962 0.0176335 0.0181334 0.0200556 0.0176335 0.019469 0.0200556 0.0219674 0.019469 0.021304 0.0219674 0.0238747 0.021304 0.0231403 0.0238747 0.0257831 0.0231403 0.0249802 0.0257831 0.0276968 0.0249802 0.0268257 0.0276968 0.0296193 0.0268257 0.0286788 0.0296193 0.031552 0.0286788 0.0305404 0.031552 0.0334949 0.0305404 0.0324101 0.0334949 0.035446 0.0324101 0.0342857 0.035446 0.0374022 0.0342857 0.0361641 0.0374022 0.03936 0.0361641 0.0380421 0.03936 0.0413159 0.0380421 0.0399169 0.0413159 0.0432671 0.0399169 0.0417868 0.0432671 0.0452117 0.0417868 0.0436508 0.0452117 0.0471485 0.0436508 0.0455088 0.0471485 0.0490768 0.0455088 0.0473608 0.0490768 0.0509964 0.0473608 0.0492066 0.0509964 0.0529071 0.0492066 0.0510465 0.0529071 0.0548089 0.0510465 0.0528804 0.0548089 0.0567018 0.0528804 0.0547083 0.0567018 0.0585858 0.0547083 0.0565302 0.0585858 0.0604607 0.0565302 0.0583461 0.0604607 0.0623265 0.0583461 0.060156 0.0623265 0.0641828 0.060156 0.0619597 0.0641828 0.0660293 0.0619597 0.063757 0.0660293 0.0678658 0.063757 0.0655476 0.0678658 0.0696919 0.0655476 0.0673312 0.0696919 0.0715078 0.0673312 0.0691076 0.0715078 0.0733137 0.0691076 0.0708767 0.0733137 0.0751105 0.0708767 0.0726388 0.0751105 0.0768998 0.0726388 0.0743946 0.0768998 0.0786834 0.0743946 0.0761453 0.0786834 0.0804641 0.0761453 0.0778923 0.0804641 0.0822446 0.0778923 0.0796377 0.0822446 0.0840281 0.0796377 0.0813836 0.0840281 0.085817 0.0813836 0.0831324 0.085817 0.0876132 0.0831324 0.0848854 0.0876132 0.0894173 0.0848854 0.0866435 0.0894173 0.0912288 0.0866435 0.0884058 0.0912288 0.0930459 0.0884058 0.0901707 0.0930459 0.0948664 0.0901707 0.0919363 0.0948664 0.0966878 0.0919363 0.0937006 0.0966878 0.0985082 0.0937006 0.0954624 0.0985082 0.100326 0.0954624 0.0972212 0.100326 0.102141 0.0972212 0.098977 0.102141 0.103951 0.098977 0.10073 0.103951 0.105757 0.10073 0.10248 0.105757 0.107559 0.10248 0.104227 0.107559 0.109357 0.104227 0.105971 0.109357 0.11115 0.105971 0.107713 0.11115 0.112939 0.107713 0.109452 0.112939 0.114723 0.109452 0.111188 0.114723 0.116503 0.111188 0.112922 0.116503 0.118279 0.112922 0.114653 0.118279 0.12005 0.114653 0.11638 0.12005 0.121818 0.11638 0.118106 0.121818 0.12358 0.118106 0.119828 0.12358 0.125339 0.119828 0.121548 0.125339 0.127093 0.121548 0.123265 0.127093 0.128843 0.123265 0.124979 0.128843 0.130589 0.124979 0.12669 0.130589 0.13233 0.12669 0.128399 0.13233 0.134067 0.128399 0.130105 0.134067 0.135799 0.130105 0.131808 0.135799 0.137528 0.131808 0.133509 0.137528 0.139252 0.133509 0.135206 0.139252 0.140971 0.135206 0.136901 0.140971 0.142687 0.136901 0.138593 0.142687 0.144398 0.138593 0.140283 0.144398 0.146105 0.140283 0.141969 0.146105 0.147807 0.141969 0.143653 0.147807 0.149505 0.143653 0.145334 0.149505 0.151199 0.145334 0.147013 0.151199 0.152888 0.147013 0.148688 0.152888 0.154574 0.148688 0.150361 0.154574 0.156254 0.150361 0.152031 0.156254 0.157931 0.152031 0.153699 0.157931 0.159603 0.153699 0.155363 0.159603 0.161271 0.155363 0.157025 0.161271 0.162935 0.157025 0.158684 0.162935 0.164594 0.158684 0.16034 0.164594 0.166249 0.16034 0.161994 0.166249 0.1679 0.161994 0.163645 0.1679 0.169546 0.163645 0.165293 0.169546 0.171188 0.165293 0.166938 0.171188 0.172825 0.166938 0.168581 0.172825 0.174458 0.168581 0.170221 0.174458 0.176087 0.170221 0.171858 0.176087 0.177712 0.171858 0.173493 0.177712 0.179333 0.173493 0.175124 0.179333 0.180951 0.175124 0.176752 0.180951 0.182567 0.176752 0.178376 0.182567 0.184184 0.178376 0.179997 0.184184 0.185805 0.179997 0.181614 0.185805 0.187435 0.181614 0.183229 0.187435 0.18908 0.183229 0.184846 0.18908 0.190744 0.184846 0.186466 0.190744 0.19243 0.186466 0.188092 0.19243 0.194138 0.188092 0.189723 0.194138 0.195864 0.189723 0.19135 0.195864 0.197597 0.19135 0.192965 0.197597 0.199324 0.192965 0.194554 0.199324 0.201031 0.194554 0.196101 0.201031 0.202699 0.196101 0.197584 0.202699 0.204319 0.197584 0.198973 0.204319 0.205878 0.198973 0.200308 0.205878 0.207346 0.200308 0.201591 0.207346 0.208642 0.201591 0.202336 0.208642 0.209687 0.202336 0.202654 0.209687 0.210108 0.202654 0.202838 0.210108 0.210095 0.202838 0.202952 0 0.00254394 0 0.00257627 0.00254394 0.00468674 0.00257627 0.00477905 0.00468674 0.00658273 0.00477905 0.00671522 0.00658273 0.00843112 0.00671522 0.00850332 0.00843112 0.0102727 0.00850332 0.0102354 0.0102727 0.0121148 0.0102354 0.011953 0.0121148 0.0139565 0.011953 0.0136734 0.0139565 0.0157962 0.0136734 0.0154024 0.0157962 0.0176335 0.0154024 0.0171409 0.0176335 0.019469 0.0171409 0.0188879 0.019469 0.021304 0.0188879 0.0206422 0.021304 0.0231403 0.0206422 0.022403 0.0231403 0.0249802 0.022403 0.0241701 0.0249802 0.0268257 0.0241701 0.0259443 0.0268257 0.0286788 0.0259443 0.0277265 0.0286788 0.0305404 0.0277265 0.0295175 0.0305404 0.0324101 0.0295175 0.0313165 0.0324101 0.0342857 0.0313165 0.0331209 0.0342857 0.0361641 0.0331209 0.0349263 0.0361641 0.0380421 0.0349263 0.0367289 0.0380421 0.0399169 0.0367289 0.038526 0.0399169 0.0417868 0.038526 0.040317 0.0417868 0.0436508 0.040317 0.0421022 0.0436508 0.0455088 0.0421022 0.0438826 0.0455088 0.0473608 0.0438826 0.0456589 0.0473608 0.0492066 0.0456589 0.0474315 0.0492066 0.0510465 0.0474315 0.0492008 0.0510465 0.0528804 0.0492008 0.0509669 0.0528804 0.0547083 0.0509669 0.05273 0.0547083 0.0565302 0.05273 0.05449 0.0565302 0.0583461 0.05449 0.0562471 0.0583461 0.060156 0.0562471 0.0580013 0.060156 0.0619597 0.0580013 0.0597526 0.0619597 0.063757 0.0597526 0.061501 0.063757 0.0655476 0.061501 0.0632458 0.0655476 0.0673312 0.0632458 0.0649867 0.0673312 0.0691076 0.0649867 0.0667229 0.0691076 0.0708767 0.0667229 0.068454 0.0708767 0.0726388 0.068454 0.0701796 0.0726388 0.0743946 0.0701796 0.0718997 0.0743946 0.0761453 0.0718997 0.0736144 0.0761453 0.0778923 0.0736144 0.0753244 0.0778923 0.0796377 0.0753244 0.0770311 0.0796377 0.0813836 0.0770311 0.0787365 0.0813836 0.0831324 0.0787365 0.0804428 0.0831324 0.0848854 0.0804428 0.0821519 0.0848854 0.0866435 0.0821519 0.0838644 0.0866435 0.0884058 0.0838644 0.0855794 0.0884058 0.0901707 0.0855794 0.0872946 0.0901707 0.0919363 0.0872946 0.0890076 0.0919363 0.0937006 0.0890076 0.0907166 0.0937006 0.0954624 0.0907166 0.0924211 0.0954624 0.0972212 0.0924211 0.0941217 0.0972212 0.098977 0.0941217 0.0958194 0.098977 0.10073 0.0958194 0.0975149 0.10073 0.10248 0.0975149 0.0992089 0.10248 0.104227 0.0992089 0.100901 0.104227 0.105971 0.100901 0.102593 0.105971 0.107713 0.102593 0.104283 0.107713 0.109452 0.104283 0.105972 0.109452 0.111188 0.105972 0.10766 0.111188 0.112922 0.10766 0.109347 0.112922 0.114653 0.109347 0.111033 0.114653 0.11638 0.111033 0.112717 0.11638 0.118106 0.112717 0.114401 0.118106 0.119828 0.114401 0.116083 0.119828 0.121548 0.116083 0.117764 0.121548 0.123265 0.117764 0.119443 0.123265 0.124979 0.119443 0.121122 0.124979 0.12669 0.121122 0.122799 0.12669 0.128399 0.122799 0.124475 0.128399 0.130105 0.124475 0.12615 0.130105 0.131808 0.12615 0.127824 0.131808 0.133509 0.127824 0.129497 0.133509 0.135206 0.129497 0.131168 0.135206 0.136901 0.131168 0.132838 0.136901 0.138593 0.132838 0.134507 0.138593 0.140283 0.134507 0.136175 0.140283 0.141969 0.136175 0.137841 0.141969 0.143653 0.137841 0.139506 0.143653 0.145334 0.139506 0.141171 0.145334 0.147013 0.141171 0.142833 0.147013 0.148688 0.142833 0.144495 0.148688 0.150361 0.144495 0.146156 0.150361 0.152031 0.146156 0.147815 0.152031 0.153699 0.147815 0.149473 0.153699 0.155363 0.149473 0.15113 0.155363 0.157025 0.15113 0.152786 0.157025 0.158684 0.152786 0.15444 0.158684 0.16034 0.15444 0.156094 0.16034 0.161994 0.156094 0.157746 0.161994 0.163645 0.157746 0.159397 0.163645 0.165293 0.159397 0.161047 0.165293 0.166938 0.161047 0.162696 0.166938 0.168581 0.162696 0.164343 0.168581 0.170221 0.164343 0.16599 0.170221 0.171858 0.16599 0.167635 0.171858 0.173493 0.167635 0.169279 0.173493 0.175124 0.169279 0.170919 0.175124 0.176752 0.170919 0.172556 0.176752 0.178376 0.172556 0.174187 0.178376 0.179997 0.174187 0.17581 0.179997 0.181614 0.17581 0.177422 0.181614 0.183229 0.177422 0.179022 0.183229 0.184846 0.179022 0.180611 0.184846 0.186466 0.180611 0.182192 0.186466 0.188092 0.182192 0.183767 0.188092 0.189723 0.183767 0.185335 0.189723 0.19135 0.185335 0.186887 0.19135 0.192965 0.186887 0.188406 0.192965 0.194554 0.188406 0.189885 0.194554 0.196101 0.189885 0.191313 0.196101 0.197584 0.191313 0.192665 0.197584 0.198973 0.192665 0.193895 0.198973 0.200308 0.193895 0.194906 0.200308 0.201591 0.194906 0.195742 0.201591 0.202336 0.195742 0.195933 0.202336 0.202654 0.195933 0.195976 0.202654 0.202838 0.195976 0.196079 0.202838 0.202952 0.196079 0.196275 0 0.00257627 0 0.00255019 0.00257627 0.00477905 0.00255019 0.00475058 0.00477905 0.00671522 0.00475058 0.00667462 0.00671522 0.00850332 0.00667462 0.00842313 0.00850332 0.0102354 0.00842313 0.0100825 0.0102354 0.011953 0.0100825 0.0117104 0.011953 0.0136734 0.0117104 0.0133369 0.0136734 0.0154024 0.0133369 0.0149745 0.0154024 0.0171409 0.0149745 0.016627 0.0171409 0.0188879 0.016627 0.0182936 0.0188879 0.0206422 0.0182936 0.0199721 0.0206422 0.022403 0.0199721 0.0216602 0.022403 0.0241701 0.0216602 0.0233562 0.0241701 0.0259443 0.0233562 0.0250597 0.0259443 0.0277265 0.0250597 0.0267715 0.0277265 0.0295175 0.0267715 0.0284928 0.0295175 0.0313165 0.0284928 0.0302231 0.0313165 0.0331209 0.0302231 0.0319586 0.0331209 0.0349263 0.0319586 0.0336932 0.0349263 0.0367289 0.0336932 0.0354215 0.0367289 0.038526 0.0354215 0.0371414 0.038526 0.040317 0.0371414 0.0388536 0.040317 0.0421022 0.0388536 0.0405601 0.0421022 0.0438826 0.0405601 0.0422631 0.0438826 0.0456589 0.0422631 0.0439641 0.0456589 0.0474315 0.0439641 0.0456639 0.0474315 0.0492008 0.0456639 0.0473629 0.0492008 0.0509669 0.0473629 0.0490616 0.0509669 0.05273 0.0490616 0.0507599 0.05273 0.05449 0.0507599 0.052458 0.05449 0.0562471 0.052458 0.0541562 0.0562471 0.0580013 0.0541562 0.0558546 0.0580013 0.0597526 0.0558546 0.0575534 0.0597526 0.061501 0.0575534 0.0592526 0.061501 0.0632458 0.0592526 0.0609517 0.0632458 0.0649867 0.0609517 0.0626498 0.0649867 0.0667229 0.0626498 0.0643459 0.0667229 0.068454 0.0643459 0.0660389 0.068454 0.0701796 0.0660389 0.067728 0.0701796 0.0718997 0.067728 0.0694124 0.0718997 0.0736144 0.0694124 0.0710911 0.0736144 0.0753244 0.0710911 0.0727639 0.0753244 0.0770311 0.0727639 0.0744314 0.0770311 0.0787365 0.0744314 0.0760954 0.0787365 0.0804428 0.0760954 0.0777588 0.0804428 0.0821519 0.0777588 0.0794238 0.0821519 0.0838644 0.0794238 0.0810909 0.0838644 0.0855794 0.0810909 0.082759 0.0855794 0.0872946 0.082759 0.0844249 0.0872946 0.0890076 0.0844249 0.0860849 0.0890076 0.0907166 0.0860849 0.0877375 0.0907166 0.0924211 0.0877375 0.0893835 0.0924211 0.0941217 0.0893835 0.0910251 0.0941217 0.0958194 0.0910251 0.0926643 0.0958194 0.0975149 0.0926643 0.0943025 0.0975149 0.0992089 0.0943025 0.0959405 0.0992089 0.100901 0.0959405 0.0975787 0.100901 0.102593 0.0975787 0.0992173 0.102593 0.104283 0.0992173 0.100856 0.104283 0.105972 0.100856 0.102496 0.105972 0.10766 0.102496 0.104136 0.10766 0.109347 0.104136 0.105776 0.109347 0.111033 0.105776 0.107416 0.111033 0.112717 0.107416 0.109057 0.112717 0.114401 0.109057 0.110699 0.114401 0.116083 0.110699 0.112341 0.116083 0.117764 0.112341 0.113983 0.117764 0.119443 0.113983 0.115625 0.119443 0.121122 0.115625 0.117268 0.121122 0.122799 0.117268 0.118911 0.122799 0.124475 0.118911 0.120555 0.124475 0.12615 0.120555 0.122199 0.12615 0.127824 0.122199 0.123843 0.127824 0.129497 0.123843 0.125487 0.129497 0.131168 0.125487 0.127132 0.131168 0.132838 0.127132 0.128778 0.132838 0.134507 0.128778 0.130423 0.134507 0.136175 0.130423 0.132069 0.136175 0.137841 0.132069 0.133716 0.137841 0.139506 0.133716 0.135363 0.139506 0.141171 0.135363 0.13701 0.141171 0.142833 0.13701 0.138657 0.142833 0.144495 0.138657 0.140305 0.144495 0.146156 0.140305 0.141953 0.146156 0.147815 0.141953 0.143602 0.147815 0.149473 0.143602 0.145251 0.149473 0.15113 0.145251 0.1469 0.15113 0.152786 0.1469 0.14855 0.152786 0.15444 0.14855 0.1502 0.15444 0.156094 0.1502 0.15185 0.156094 0.157746 0.15185 0.153501 0.157746 0.159397 0.153501 0.155152 0.159397 0.161047 0.155152 0.156804 0.161047 0.162696 0.156804 0.158456 0.162696 0.164343 0.158456 0.160108 0.164343 0.16599 0.160108 0.161761 0.16599 0.167635 0.161761 0.163414 0.167635 0.169279 0.163414 0.165067 0.169279 0.170919 0.165067 0.166718 0.170919 0.172556 0.166718 0.168365 0.172556 0.174187 0.168365 0.170006 0.174187 0.17581 0.170006 0.171635 0.17581 0.177422 0.171635 0.173249 0.177422 0.179022 0.173249 0.174842 0.179022 0.180611 0.174842 0.176415 0.180611 0.182192 0.176415 0.177969 0.182192 0.183767 0.177969 0.179509 0.183767 0.185335 0.179509 0.181034 0.185335 0.186887 0.181034 0.182534 0.186887 0.188406 0.182534 0.18398 0.188406 0.189885 0.18398 0.18535 0.189885 0.191313 0.18535 0.186686 0.191313 0.192665 0.186686 0.187995 0.192665 0.193895 0.187995 0.188839 0.193895 0.194906 0.188839 0.189319 0.194906 0.195742 0.189319 0.189629 0.195742 0.195933 0.189629 0.189712 0.195933 0.195976 0.189712 0.189772 0.195976 0.196079 0.189772 0.189862 0.196079 0.196275 0.189862 0.190063 0 0.00255019 0 0.00249748 0.00255019 0.00475058 0.00249748 0.0046424 0.00475058 0.00667462 0.0046424 0.00651192 0.00667462 0.00842313 0.00651192 0.00820319 0.00842313 0.0100825 0.00820319 0.0098008 0.0100825 0.0117104 0.0098008 0.0113621 0.0117104 0.0133369 0.0113621 0.0129195 0.0133369 0.0149745 0.0129195 0.0144881 0.0149745 0.016627 0.0144881 0.0160728 0.016627 0.0182936 0.0160728 0.0176733 0.0182936 0.0199721 0.0176733 0.0192872 0.0199721 0.0216602 0.0192872 0.0209112 0.0216602 0.0233562 0.0209112 0.0225426 0.0233562 0.0250597 0.0225426 0.02418 0.0250597 0.0267715 0.02418 0.0258239 0.0267715 0.0284928 0.0258239 0.0274766 0.0284928 0.0302231 0.0274766 0.0291391 0.0302231 0.0319586 0.0291391 0.0308063 0.0319586 0.0336932 0.0308063 0.0324693 0.0336932 0.0354215 0.0324693 0.034121 0.0354215 0.0371414 0.034121 0.0357607 0.0371414 0.0388536 0.0357607 0.0373918 0.0388536 0.0405601 0.0373918 0.0390186 0.0405601 0.0422631 0.0390186 0.0406439 0.0422631 0.0439641 0.0406439 0.0422697 0.0439641 0.0456639 0.0422697 0.0438969 0.0456639 0.0473629 0.0438969 0.0455261 0.0473629 0.0490616 0.0455261 0.0471574 0.0490616 0.0507599 0.0471574 0.0487911 0.0507599 0.052458 0.0487911 0.0504273 0.052458 0.0541562 0.0504273 0.0520662 0.0541562 0.0558546 0.0520662 0.0537082 0.0558546 0.0575534 0.0537082 0.0553538 0.0575534 0.0592526 0.0553538 0.0570033 0.0592526 0.0609517 0.0570033 0.0586563 0.0609517 0.0626498 0.0586563 0.0603118 0.0626498 0.0643459 0.0603118 0.0619682 0.0643459 0.0660389 0.0619682 0.0636242 0.0660389 0.067728 0.0636242 0.0652785 0.067728 0.0694124 0.0652785 0.0669297 0.0694124 0.0710911 0.0669297 0.0685758 0.0710911 0.0727639 0.0685758 0.0702146 0.0727639 0.0744314 0.0702146 0.0718452 0.0744314 0.0760954 0.0718452 0.0734696 0.0760954 0.0777588 0.0734696 0.0750914 0.0777588 0.0794238 0.0750914 0.0767128 0.0794238 0.0810909 0.0767128 0.0783345 0.0810909 0.082759 0.0783345 0.0799548 0.082759 0.0844249 0.0799548 0.0815691 0.0844249 0.0860849 0.0815691 0.0831724 0