# vtk DataFile Version 3.0
#This file was generated by the deal.II library on 2021/2/12 at 0:05:51
ASCII
DATASET UNSTRUCTURED_GRID

POINTS 28800 double
0 -0.5 0
0.0166667 -0.5 0
0 -0.483333 0
0.0166667 -0.483333 0
0.0166667 -0.5 0
0.0333333 -0.5 0
0.0166667 -0.483333 0
0.0333333 -0.483333 0
0.0333333 -0.5 0
0.05 -0.5 0
0.0333333 -0.483333 0
0.05 -0.483333 0
0.05 -0.5 0
0.0666667 -0.5 0
0.05 -0.483333 0
0.0666667 -0.483333 0
0.0666667 -0.5 0
0.0833333 -0.5 0
0.0666667 -0.483333 0
0.0833333 -0.483333 0
0.0833333 -0.5 0
0.1 -0.5 0
0.0833333 -0.483333 0
0.1 -0.483333 0
0.1 -0.5 0
0.116667 -0.5 0
0.1 -0.483333 0
0.116667 -0.483333 0
0.116667 -0.5 0
0.133333 -0.5 0
0.116667 -0.483333 0
0.133333 -0.483333 0
0.133333 -0.5 0
0.15 -0.5 0
0.133333 -0.483333 0
0.15 -0.483333 0
0.15 -0.5 0
0.166667 -0.5 0
0.15 -0.483333 0
0.166667 -0.483333 0
0.166667 -0.5 0
0.183333 -0.5 0
0.166667 -0.483333 0
0.183333 -0.483333 0
0.183333 -0.5 0
0.2 -0.5 0
0.183333 -0.483333 0
0.2 -0.483333 0
0.2 -0.5 0
0.216667 -0.5 0
0.2 -0.483333 0
0.216667 -0.483333 0
0.216667 -0.5 0
0.233333 -0.5 0
0.216667 -0.483333 0
0.233333 -0.483333 0
0.233333 -0.5 0
0.25 -0.5 0
0.233333 -0.483333 0
0.25 -0.483333 0
0.25 -0.5 0
0.266667 -0.5 0
0.25 -0.483333 0
0.266667 -0.483333 0
0.266667 -0.5 0
0.283333 -0.5 0
0.266667 -0.483333 0
0.283333 -0.483333 0
0.283333 -0.5 0
0.3 -0.5 0
0.283333 -0.483333 0
0.3 -0.483333 0
0.3 -0.5 0
0.316667 -0.5 0
0.3 -0.483333 0
0.316667 -0.483333 0
0.316667 -0.5 0
0.333333 -0.5 0
0.316667 -0.483333 0
0.333333 -0.483333 0
0.333333 -0.5 0
0.35 -0.5 0
0.333333 -0.483333 0
0.35 -0.483333 0
0.35 -0.5 0
0.366667 -0.5 0
0.35 -0.483333 0
0.366667 -0.483333 0
0.366667 -0.5 0
0.383333 -0.5 0
0.366667 -0.483333 0
0.383333 -0.483333 0
0.383333 -0.5 0
0.4 -0.5 0
0.383333 -0.483333 0
0.4 -0.483333 0
0.4 -0.5 0
0.416667 -0.5 0
0.4 -0.483333 0
0.416667 -0.483333 0
0.416667 -0.5 0
0.433333 -0.5 0
0.416667 -0.483333 0
0.433333 -0.483333 0
0.433333 -0.5 0
0.45 -0.5 0
0.433333 -0.483333 0
0.45 -0.483333 0
0.45 -0.5 0
0.466667 -0.5 0
0.45 -0.483333 0
0.466667 -0.483333 0
0.466667 -0.5 0
0.483333 -0.5 0
0.466667 -0.483333 0
0.483333 -0.483333 0
0.483333 -0.5 0
0.5 -0.5 0
0.483333 -0.483333 0
0.5 -0.483333 0
0.5 -0.5 0
0.516667 -0.5 0
0.5 -0.483333 0
0.516667 -0.483333 0
0.516667 -0.5 0
0.533333 -0.5 0
0.516667 -0.483333 0
0.533333 -0.483333 0
0.533333 -0.5 0
0.55 -0.5 0
0.533333 -0.483333 0
0.55 -0.483333 0
0.55 -0.5 0
0.566667 -0.5 0
0.55 -0.483333 0
0.566667 -0.483333 0
0.566667 -0.5 0
0.583333 -0.5 0
0.566667 -0.483333 0
0.583333 -0.483333 0
0.583333 -0.5 0
0.6 -0.5 0
0.583333 -0.483333 0
0.6 -0.483333 0
0.6 -0.5 0
0.616667 -0.5 0
0.6 -0.483333 0
0.616667 -0.483333 0
0.616667 -0.5 0
0.633333 -0.5 0
0.616667 -0.483333 0
0.633333 -0.483333 0
0.633333 -0.5 0
0.65 -0.5 0
0.633333 -0.483333 0
0.65 -0.483333 0
0.65 -0.5 0
0.666667 -0.5 0
0.65 -0.483333 0
0.666667 -0.483333 0
0.666667 -0.5 0
0.683333 -0.5 0
0.666667 -0.483333 0
0.683333 -0.483333 0
0.683333 -0.5 0
0.7 -0.5 0
0.683333 -0.483333 0
0.7 -0.483333 0
0.7 -0.5 0
0.716667 -0.5 0
0.7 -0.483333 0
0.716667 -0.483333 0
0.716667 -0.5 0
0.733333 -0.5 0
0.716667 -0.483333 0
0.733333 -0.483333 0
0.733333 -0.5 0
0.75 -0.5 0
0.733333 -0.483333 0
0.75 -0.483333 0
0.75 -0.5 0
0.766667 -0.5 0
0.75 -0.483333 0
0.766667 -0.483333 0
0.766667 -0.5 0
0.783333 -0.5 0
0.766667 -0.483333 0
0.783333 -0.483333 0
0.783333 -0.5 0
0.8 -0.5 0
0.783333 -0.483333 0
0.8 -0.483333 0
0.8 -0.5 0
0.816667 -0.5 0
0.8 -0.483333 0
0.816667 -0.483333 0
0.816667 -0.5 0
0.833333 -0.5 0
0.816667 -0.483333 0
0.833333 -0.483333 0
0.833333 -0.5 0
0.85 -0.5 0
0.833333 -0.483333 0
0.85 -0.483333 0
0.85 -0.5 0
0.866667 -0.5 0
0.85 -0.483333 0
0.866667 -0.483333 0
0.866667 -0.5 0
0.883333 -0.5 0
0.866667 -0.483333 0
0.883333 -0.483333 0
0.883333 -0.5 0
0.9 -0.5 0
0.883333 -0.483333 0
0.9 -0.483333 0
0.9 -0.5 0
0.916667 -0.5 0
0.9 -0.483333 0
0.916667 -0.483333 0
0.916667 -0.5 0
0.933333 -0.5 0
0.916667 -0.483333 0
0.933333 -0.483333 0
0.933333 -0.5 0
0.95 -0.5 0
0.933333 -0.483333 0
0.95 -0.483333 0
0.95 -0.5 0
0.966667 -0.5 0
0.95 -0.483333 0
0.966667 -0.483333 0
0.966667 -0.5 0
0.983333 -0.5 0
0.966667 -0.483333 0
0.983333 -0.483333 0
0.983333 -0.5 0
1 -0.5 0
0.983333 -0.483333 0
1 -0.483333 0
1 -0.5 0
1.01667 -0.5 0
1 -0.483333 0
1.01667 -0.483333 0
1.01667 -0.5 0
1.03333 -0.5 0
1.01667 -0.483333 0
1.03333 -0.483333 0
1.03333 -0.5 0
1.05 -0.5 0
1.03333 -0.483333 0
1.05 -0.483333 0
1.05 -0.5 0
1.06667 -0.5 0
1.05 -0.483333 0
1.06667 -0.483333 0
1.06667 -0.5 0
1.08333 -0.5 0
1.06667 -0.483333 0
1.08333 -0.483333 0
1.08333 -0.5 0
1.1 -0.5 0
1.08333 -0.483333 0
1.1 -0.483333 0
1.1 -0.5 0
1.11667 -0.5 0
1.1 -0.483333 0
1.11667 -0.483333 0
1.11667 -0.5 0
1.13333 -0.5 0
1.11667 -0.483333 0
1.13333 -0.483333 0
1.13333 -0.5 0
1.15 -0.5 0
1.13333 -0.483333 0
1.15 -0.483333 0
1.15 -0.5 0
1.16667 -0.5 0
1.15 -0.483333 0
1.16667 -0.483333 0
1.16667 -0.5 0
1.18333 -0.5 0
1.16667 -0.483333 0
1.18333 -0.483333 0
1.18333 -0.5 0
1.2 -0.5 0
1.18333 -0.483333 0
1.2 -0.483333 0
1.2 -0.5 0
1.21667 -0.5 0
1.2 -0.483333 0
1.21667 -0.483333 0
1.21667 -0.5 0
1.23333 -0.5 0
1.21667 -0.483333 0
1.23333 -0.483333 0
1.23333 -0.5 0
1.25 -0.5 0
1.23333 -0.483333 0
1.25 -0.483333 0
1.25 -0.5 0
1.26667 -0.5 0
1.25 -0.483333 0
1.26667 -0.483333 0
1.26667 -0.5 0
1.28333 -0.5 0
1.26667 -0.483333 0
1.28333 -0.483333 0
1.28333 -0.5 0
1.3 -0.5 0
1.28333 -0.483333 0
1.3 -0.483333 0
1.3 -0.5 0
1.31667 -0.5 0
1.3 -0.483333 0
1.31667 -0.483333 0
1.31667 -0.5 0
1.33333 -0.5 0
1.31667 -0.483333 0
1.33333 -0.483333 0
1.33333 -0.5 0
1.35 -0.5 0
1.33333 -0.483333 0
1.35 -0.483333 0
1.35 -0.5 0
1.36667 -0.5 0
1.35 -0.483333 0
1.36667 -0.483333 0
1.36667 -0.5 0
1.38333 -0.5 0
1.36667 -0.483333 0
1.38333 -0.483333 0
1.38333 -0.5 0
1.4 -0.5 0
1.38333 -0.483333 0
1.4 -0.483333 0
1.4 -0.5 0
1.41667 -0.5 0
1.4 -0.483333 0
1.41667 -0.483333 0
1.41667 -0.5 0
1.43333 -0.5 0
1.41667 -0.483333 0
1.43333 -0.483333 0
1.43333 -0.5 0
1.45 -0.5 0
1.43333 -0.483333 0
1.45 -0.483333 0
1.45 -0.5 0
1.46667 -0.5 0
1.45 -0.483333 0
1.46667 -0.483333 0
1.46667 -0.5 0
1.48333 -0.5 0
1.46667 -0.483333 0
1.48333 -0.483333 0
1.48333 -0.5 0
1.5 -0.5 0
1.48333 -0.483333 0
1.5 -0.483333 0
1.5 -0.5 0
1.51667 -0.5 0
1.5 -0.483333 0
1.51667 -0.483333 0
1.51667 -0.5 0
1.53333 -0.5 0
1.51667 -0.483333 0
1.53333 -0.483333 0
1.53333 -0.5 0
1.55 -0.5 0
1.53333 -0.483333 0
1.55 -0.483333 0
1.55 -0.5 0
1.56667 -0.5 0
1.55 -0.483333 0
1.56667 -0.483333 0
1.56667 -0.5 0
1.58333 -0.5 0
1.56667 -0.483333 0
1.58333 -0.483333 0
1.58333 -0.5 0
1.6 -0.5 0
1.58333 -0.483333 0
1.6 -0.483333 0
1.6 -0.5 0
1.61667 -0.5 0
1.6 -0.483333 0
1.61667 -0.483333 0
1.61667 -0.5 0
1.63333 -0.5 0
1.61667 -0.483333 0
1.63333 -0.483333 0
1.63333 -0.5 0
1.65 -0.5 0
1.63333 -0.483333 0
1.65 -0.483333 0
1.65 -0.5 0
1.66667 -0.5 0
1.65 -0.483333 0
1.66667 -0.483333 0
1.66667 -0.5 0
1.68333 -0.5 0
1.66667 -0.483333 0
1.68333 -0.483333 0
1.68333 -0.5 0
1.7 -0.5 0
1.68333 -0.483333 0
1.7 -0.483333 0
1.7 -0.5 0
1.71667 -0.5 0
1.7 -0.483333 0
1.71667 -0.483333 0
1.71667 -0.5 0
1.73333 -0.5 0
1.71667 -0.483333 0
1.73333 -0.483333 0
1.73333 -0.5 0
1.75 -0.5 0
1.73333 -0.483333 0
1.75 -0.483333 0
1.75 -0.5 0
1.76667 -0.5 0
1.75 -0.483333 0
1.76667 -0.483333 0
1.76667 -0.5 0
1.78333 -0.5 0
1.76667 -0.483333 0
1.78333 -0.483333 0
1.78333 -0.5 0
1.8 -0.5 0
1.78333 -0.483333 0
1.8 -0.483333 0
1.8 -0.5 0
1.81667 -0.5 0
1.8 -0.483333 0
1.81667 -0.483333 0
1.81667 -0.5 0
1.83333 -0.5 0
1.81667 -0.483333 0
1.83333 -0.483333 0
1.83333 -0.5 0
1.85 -0.5 0
1.83333 -0.483333 0
1.85 -0.483333 0
1.85 -0.5 0
1.86667 -0.5 0
1.85 -0.483333 0
1.86667 -0.483333 0
1.86667 -0.5 0
1.88333 -0.5 0
1.86667 -0.483333 0
1.88333 -0.483333 0
1.88333 -0.5 0
1.9 -0.5 0
1.88333 -0.483333 0
1.9 -0.483333 0
1.9 -0.5 0
1.91667 -0.5 0
1.9 -0.483333 0
1.91667 -0.483333 0
1.91667 -0.5 0
1.93333 -0.5 0
1.91667 -0.483333 0
1.93333 -0.483333 0
1.93333 -0.5 0
1.95 -0.5 0
1.93333 -0.483333 0
1.95 -0.483333 0
1.95 -0.5 0
1.96667 -0.5 0
1.95 -0.483333 0
1.96667 -0.483333 0
1.96667 -0.5 0
1.98333 -0.5 0
1.96667 -0.483333 0
1.98333 -0.483333 0
1.98333 -0.5 0
2 -0.5 0
1.98333 -0.483333 0
2 -0.483333 0
0 -0.483333 0
0.0166667 -0.483333 0
0 -0.466667 0
0.0166667 -0.466667 0
0.0166667 -0.483333 0
0.0333333 -0.483333 0
0.0166667 -0.466667 0
0.0333333 -0.466667 0
0.0333333 -0.483333 0
0.05 -0.483333 0
0.0333333 -0.466667 0
0.05 -0.466667 0
0.05 -0.483333 0
0.0666667 -0.483333 0
0.05 -0.466667 0
0.0666667 -0.466667 0
0.0666667 -0.483333 0
0.0833333 -0.483333 0
0.0666667 -0.466667 0
0.0833333 -0.466667 0
0.0833333 -0.483333 0
0.1 -0.483333 0
0.0833333 -0.466667 0
0.1 -0.466667 0
0.1 -0.483333 0
0.116667 -0.483333 0
0.1 -0.466667 0
0.116667 -0.466667 0
0.116667 -0.483333 0
0.133333 -0.483333 0
0.116667 -0.466667 0
0.133333 -0.466667 0
0.133333 -0.483333 0
0.15 -0.483333 0
0.133333 -0.466667 0
0.15 -0.466667 0
0.15 -0.483333 0
0.166667 -0.483333 0
0.15 -0.466667 0
0.166667 -0.466667 0
0.166667 -0.483333 0
0.183333 -0.483333 0
0.166667 -0.466667 0
0.183333 -0.466667 0
0.183333 -0.483333 0
0.2 -0.483333 0
0.183333 -0.466667 0
0.2 -0.466667 0
0.2 -0.483333 0
0.216667 -0.483333 0
0.2 -0.466667 0
0.216667 -0.466667 0
0.216667 -0.483333 0
0.233333 -0.483333 0
0.216667 -0.466667 0
0.233333 -0.466667 0
0.233333 -0.483333 0
0.25 -0.483333 0
0.233333 -0.466667 0
0.25 -0.466667 0
0.25 -0.483333 0
0.266667 -0.483333 0
0.25 -0.466667 0
0.266667 -0.466667 0
0.266667 -0.483333 0
0.283333 -0.483333 0
0.266667 -0.466667 0
0.283333 -0.466667 0
0.283333 -0.483333 0
0.3 -0.483333 0
0.283333 -0.466667 0
0.3 -0.466667 0
0.3 -0.483333 0
0.316667 -0.483333 0
0.3 -0.466667 0
0.316667 -0.466667 0
0.316667 -0.483333 0
0.333333 -0.483333 0
0.316667 -0.466667 0
0.333333 -0.466667 0
0.333333 -0.483333 0
0.35 -0.483333 0
0.333333 -0.466667 0
0.35 -0.466667 0
0.35 -0.483333 0
0.366667 -0.483333 0
0.35 -0.466667 0
0.366667 -0.466667 0
0.366667 -0.483333 0
0.383333 -0.483333 0
0.366667 -0.466667 0
0.383333 -0.466667 0
0.383333 -0.483333 0
0.4 -0.483333 0
[...]
POINT_DATA 28800
SCALARS x1_displacement double 1
LOOKUP_TABLE default
0 0.000310403 0 0.000197359 0.000310403 0.000603168 0.000197359 0.000441306 0.000603168 0.000891813 0.000441306 0.000678898 0.000891813 0.00117799 0.000678898 0.00090843 0.00117799 0.00145547 0.00090843 0.00112876 0.00145547 0.00172007 0.00112876 0.00133876 0.00172007 0.00196939 0.00133876 0.00153768 0.00196939 0.00220266 0.00153768 0.00172528 0.00220266 0.00242015 0.00172528 0.00190183 0.00242015 0.00262277 0.00190183 0.00206788 0.00262277 0.00281168 0.00206788 0.00222414 0.00281168 0.00298805 0.00222414 0.00237137 0.00298805 0.00315277 0.00237137 0.00251019 0.00315277 0.00330619 0.00251019 0.00264104 0.00330619 0.00344769 0.00264104 0.00276409 0.00344769 0.00357498 0.00276409 0.00287911 0.00357498 0.00368306 0.00287911 0.00298579 0.00368306 0.00376776 0.00298579 0.00308784 0.00376776 0.00384014 0.00308784 0.00320746 0.00384014 0.00394991 0.00320746 0.00339047 0.00394991 0.00417312 0.00339047 0.00359418 0.00417312 0.004329 0.00359418 0.00373332 0.004329 0.00437976 0.00373332 0.0038217 0.00437976 0.00444424 0.0038217 0.00404326 0.00444424 0.00505943 0.00404326 0.00446344 0.00505943 0.00550978 0.00446344 0.0046668 0.00550978 0.00596485 0.0046668 0.00473285 0.00596485 0.00657143 0.00473285 0.00482638 0.00657143 0.00697912 0.00482638 0.00560971 0.00697912 0.00748744 0.00560971 0.00622869 0.00748744 0.00815775 0.00622869 0.00674111 0.00815775 0.00889181 0.00674111 0.00726449 0.00889181 0.00955406 0.00726449 0.00784772 0.00955406 0.0101476 0.00784772 0.00839196 0.0101476 0.010764 0.00839196 0.00903246 0.010764 0.0114996 0.00903246 0.00971116 0.0114996 0.0122787 0.00971116 0.0103892 0.0122787 0.0130148 0.0103892 0.0110359 0.0130148 0.0136941 0.0110359 0.0116623 0.0136941 0.0143768 0.0116623 0.0123017 0.0143768 0.0151061 0.0123017 0.0129839 0.0151061 0.0158736 0.0129839 0.0136811 0.0158736 0.0166338 0.0136811 0.0143683 0.0166338 0.0173633 0.0143683 0.0150316 0.0173633 0.0180749 0.0150316 0.0156889 0.0180749 0.0187979 0.0156889 0.0163584 0.0187979 0.0195428 0.0163584 0.0170451 0.0195428 0.0202946 0.0170451 0.0177355 0.0202946 0.0210278 0.0177355 0.0184127 0.0210278 0.0217262 0.0184127 0.0190693 0.0217262 0.0223921 0.0190693 0.0197088 0.0223921 0.0230389 0.0197088 0.0203408 0.0230389 0.0236815 0.0203408 0.0209708 0.0236815 0.0243325 0.0209708 0.0216022 0.0243325 0.0250044 0.0216022 0.0222391 0.0250044 0.025708 0.0222391 0.022889 0.025708 0.0264455 0.022889 0.0235547 0.0264455 0.0272053 0.0235547 0.0242312 0.0272053 0.0279651 0.0242312 0.0249067 0.0279651 0.0287026 0.0249067 0.0255699 0.0287026 0.0294094 0.0255699 0.0262117 0.0294094 0.0300969 0.0262117 0.0268364 0.0300969 0.0307912 0.0268364 0.0274552 0.0307912 0.0315066 0.0274552 0.0280793 0.0315066 0.0322332 0.0280793 0.0286956 0.0322332 0.0329427 0.0286956 0.0292906 0.0329427 0.0336103 0.0292906 0.0298578 0.0336103 0.0342191 0.0298578 0.0303991 0.0342191 0.0347637 0.0303991 0.0309094 0.0347637 0.0352685 0.0309094 0.0313789 0.0352685 0.035772 0.0313789 0.0318401 0.035772 0.0363005 0.0318401 0.0322888 0.0363005 0.0368232 0.0322888 0.0327143 0.0368232 0.0373085 0.0327143 0.0330931 0.0373085 0.0377393 0.0330931 0.0334489 0.0377393 0.0381092 0.0334489 0.0338005 0.0381092 0.0384136 0.0338005 0.0341344 0.0384136 0.0387068 0.0341344 0.0344128 0.0387068 0.0390128 0.0344128 0.0346958 0.0390128 0.0393162 0.0346958 0.0349089 0.0393162 0.039565 0.0349089 0.0350678 0.039565 0.0397685 0.0350678 0.0352123 0.0397685 0.0399549 0.0352123 0.0353613 0.0399549 0.0401342 0.0353613 0.0355298 0.0401342 0.0402855 0.0355298 0.0357436 0.0402855 0.0404041 0.0357436 0.0360153 0.0404041 0.0405695 0.0360153 0.0360455 0.0405695 0.0406528 0.0360455 0.0360545 0.0406528 0.0406868 0.0360545 0.0360781 0.0406868 0.0407126 0.0360781 0.0360983 0.0407126 0.0407401 0.0360983 0.0361234 0.0407401 0.0407847 0.0361234 0.036164 0.0407847 0.0408577 0.036164 0.0362331 0.0408577 0.04087 0.0362331 0.0363166 0.04087 0.0408628 0.0363166 0.0363578 0.0408628 0.0408522 0.0363578 0.0363782 0.0408522 0.0408294 0.0363782 0.0363922 0.0408294 0.0408018 0.0363922 0.0363976 0.0408018 0.0407681 0.0363976 0.0364013 0.0407681 0.0407352 0.0364013 0.0364126 0.0407352 0.040713 0.0364126 0.0364395 0.040713 0.0407049 0.0364395 0.036478 0.0407049 0.0406987 0.036478 0.0365144 0.0406987 0.0406875 0.0365144 0.0365529 0.0406875 0.0406673 0.0365529 0.0365913 0.0406673 0.040639 0.0365913 0.0366294 0.040639 0.0406069 0.0366294 0.0366689 0.0406069 0.0405769 0.0366689 0.0367147 0.0405769 0.0405544 0.0367147 0.0367682 0.0405544 0.0405372 0.0367682 0.036831 0.0405372 0.0405127 0.036831 0.0369081 0.0405127 0.0404673 0.0369081 0.0370092 0.0404673 0.0404057 0.0370092 0.0371431 0.0404057 0.0403529 0.0371431 0.0372956 0.0403529 0.0403284 0.0372956 0.0374448 0.0403284 0.0403408 0.0374448 0.0375814 0.0403408 0.040387 0.0375814 0.0376964 0.040387 0.0404432 0.0376964 0.0377743 0.0404432 0.0404755 0.0377743 0.0378107 0.0404755 0.0404821 0.0378107 0.037813 0 0.000197359 0 0.000138991 0.000197359 0.000441306 0.000138991 0.000307026 0.000441306 0.000678898 0.000307026 0.000485786 0.000678898 0.00090843 0.000485786 0.000659938 0.00090843 0.00112876 0.000659938 0.000826249 0.00112876 0.00133876 0.000826249 0.000984027 0.00133876 0.00153768 0.000984027 0.00113348 0.00153768 0.00172528 0.00113348 0.00127512 0.00172528 0.00190183 0.00127512 0.00140954 0.00190183 0.00206788 0.00140954 0.00153739 0.00206788 0.00222414 0.00153739 0.00165931 0.00222414 0.00237137 0.00165931 0.00177595 0.00237137 0.00251019 0.00177595 0.00188805 0.00251019 0.00264104 0.00188805 0.00199649 0.00264104 0.00276409 0.00199649 0.00210248 0.00276409 0.00287911 0.00210248 0.00220798 0.00287911 0.00298579 0.00220798 0.0023163 0.00298579 0.00308784 0.0023163 0.00243172 0.00308784 0.00320746 0.00243172 0.00255925 0.00320746 0.00339047 0.00255925 0.00270546 0.00339047 0.00359418 0.00270546 0.00286547 0.00359418 0.00373332 0.00286547 0.00302557 0.00373332 0.0038217 0.00302557 0.00320827 0.0038217 0.00404326 0.00320827 0.00349653 0.00404326 0.00446344 0.00349653 0.00376794 0.00446344 0.0046668 0.00376794 0.00394613 0.0046668 0.00473285 0.00394613 0.00406333 0.00473285 0.00482638 0.00406333 0.00435523 0.00482638 0.00560971 0.00435523 0.00492572 0.00560971 0.00622869 0.00492572 0.00523181 0.00622869 0.00674111 0.00523181 0.00535849 0.00674111 0.00726449 0.00535849 0.00545957 0.00726449 0.00784772 0.00545957 0.00576734 0.00784772 0.00839196 0.00576734 0.00668257 0.00839196 0.00903246 0.00668257 0.0073535 0.00903246 0.00971116 0.0073535 0.00791253 0.00971116 0.0103892 0.00791253 0.00848478 0.0103892 0.0110359 0.00848478 0.00905807 0.0110359 0.0116623 0.00905807 0.00958747 0.0116623 0.0123017 0.00958747 0.0102009 0.0123017 0.0129839 0.0102009 0.010844 0.0129839 0.0136811 0.010844 0.0114979 0.0136811 0.0143683 0.0114979 0.0121206 0.0143683 0.0150316 0.0121206 0.0127091 0.0150316 0.0156889 0.0127091 0.013284 0.0156889 0.0163584 0.013284 0.0139002 0.0163584 0.0170451 0.0139002 0.014547 0.0170451 0.0177355 0.014547 0.0151991 0.0177355 0.0184127 0.0151991 0.0158359 0.0184127 0.0190693 0.0158359 0.0164454 0.0190693 0.0197088 0.0164454 0.017045 0.0197088 0.0203408 0.017045 0.0176488 0.0203408 0.0209708 0.0176488 0.0182574 0.0209708 0.0216022 0.0182574 0.0188577 0.0216022 0.0222391 0.0188577 0.0194485 0.0222391 0.022889 0.0194485 0.0200402 0.022889 0.0235547 0.0200402 0.0206465 0.0235547 0.0242312 0.0206465 0.0212593 0.0242312 0.0249067 0.0212593 0.0218695 0.0249067 0.0255699 0.0218695 0.0224696 0.0255699 0.0262117 0.0224696 0.0230491 0.0262117 0.0268364 0.0230491 0.0235928 0.0268364 0.0274552 0.0235928 0.0241357 0.0274552 0.0280793 0.0241357 0.0246806 0.0280793 0.0286956 0.0246806 0.025213 0.0286956 0.0292906 0.025213 0.0256997 0.0292906 0.0298578 0.0256997 0.0261639 0.0298578 0.0303991 0.0261639 0.026633 0.0303991 0.0309094 0.026633 0.0271123 0.0309094 0.0313789 0.0271123 0.0275642 0.0313789 0.0318401 0.0275642 0.0279505 0.0318401 0.0322888 0.0279505 0.02838 0.0322888 0.0327143 0.02838 0.0286837 0.0327143 0.0330931 0.0286837 0.0289259 0.0330931 0.0334489 0.0289259 0.0291871 0.0334489 0.0338005 0.0291871 0.0294875 0.0338005 0.0341344 0.0294875 0.0298648 0.0341344 0.0344128 0.0298648 0.0303676 0.0344128 0.0346958 0.0303676 0.0305138 0.0346958 0.0349089 0.0305138 0.0305505 0.0349089 0.0350678 0.0305505 0.0306009 0.0350678 0.0352123 0.0306009 0.0306702 0.0352123 0.0353613 0.0306702 0.0307458 0.0353613 0.0355298 0.0307458 0.0308451 0.0355298 0.0357436 0.0308451 0.0309852 0.0357436 0.0360153 0.0309852 0.0311854 0.0360153 0.0360455 0.0311854 0.0313166 0.0360455 0.0360545 0.0313166 0.0313745 0.0360545 0.0360781 0.0313745 0.0314303 0.0360781 0.0360983 0.0314303 0.0314743 0.0360983 0.0361234 0.0314743 0.031516 0.0361234 0.036164 0.031516 0.0315667 0.036164 0.0362331 0.0315667 0.0316333 0.0362331 0.0363166 0.0316333 0.0317166 0.0363166 0.0363578 0.0317166 0.0317989 0.0363578 0.0363782 0.0317989 0.0318653 0.0363782 0.0363922 0.0318653 0.0319244 0.0363922 0.0363976 0.0319244 0.0319768 0.0363976 0.0364013 0.0319768 0.0320297 0.0364013 0.0364126 0.0320297 0.0320909 0.0364126 0.0364395 0.0320909 0.0321611 0.0364395 0.036478 0.0321611 0.032236 0.036478 0.0365144 0.032236 0.032312 0.0365144 0.0365529 0.032312 0.0323952 0.0365529 0.0365913 0.0323952 0.0324894 0.0365913 0.0366294 0.0324894 0.0325947 0.0366294 0.0366689 0.0325947 0.032715 0.0366689 0.0367147 0.032715 0.0328433 0.0367147 0.0367682 0.0328433 0.0329716 0.0367682 0.036831 0.0329716 0.0331026 0.036831 0.0369081 0.0331026 0.0332578 0.0369081 0.0370092 0.0332578 0.0334906 0.0370092 0.0371431 0.0334906 0.033847 0.0371431 0.0372956 0.033847 0.0342179 0.0372956 0.0374448 0.0342179 0.0345536 0.0374448 0.0375814 0.0345536 0.0348591 0.0375814 0.0376964 0.0348591 0.0350733 0.0376964 0.0377743 0.0350733 0.0351672 0.0377743 0.0378107 0.0351672 0.0351902 0.0378107 0.037813 0.0351902 0.0351668 0 0.000138991 0 8.65202e-05 0.000138991 0.000307026 8.65202e-05 0.000194359 0.000307026 0.000485786 0.000194359 0.000311521 0.000485786 0.000659938 0.000311521 0.000428476 0.000659938 0.000826249 0.000428476 0.000540157 0.000826249 0.000984027 0.000540157 0.000645679 0.000984027 0.00113348 0.000645679 0.000745645 0.00113348 0.00127512 0.000745645 0.00084105 0.00127512 0.00140954 0.00084105 0.00093282 0.00140954 0.00153739 0.00093282 0.00102171 0.00153739 0.00165931 0.00102171 0.00110837 0.00165931 0.00177595 0.00110837 0.00119344 0.00177595 0.00188805 0.00119344 0.0012777 0.00188805 0.00199649 0.0012777 0.00136228 0.00199649 0.00210248 0.00136228 0.0014488 0.00210248 0.00220798 0.0014488 0.00153961 0.00220798 0.0023163 0.00153961 0.00163731 0.0023163 0.00243172 0.00163731 0.0017431 0.00243172 0.00255925 0.0017431 0.00185555 0.00255925 0.00270546 0.00185555 0.00197554 0.00270546 0.00286547 0.00197554 0.00210998 0.00286547 0.00302557 0.00210998 0.00226262 0.00302557 0.00320827 0.00226262 0.00243583 0.00320827 0.00349653 0.00243583 0.00264377 0.00349653 0.00376794 0.00264377 0.00286403 0.00376794 0.00394613 0.00286403 0.00307453 0.00394613 0.00406333 0.00307453 0.00331179 0.00406333 0.00435523 0.00331179 0.00368445 0.00435523 0.00492572 0.00368445 0.00403886 0.00492572 0.00523181 0.00403886 0.00428586 0.00523181 0.00535849 0.00428586 0.00446141 0.00535849 0.00545957 0.00446141 0.00471103 0.00545957 0.00576734 0.00471103 0.00528383 0.00576734 0.00668257 0.00528383 0.0058162 0.00668257 0.0073535 0.0058162 0.00608975 0.0073535 0.00791253 0.00608975 0.00619755 0.00791253 0.00848478 0.00619755 0.00629943 0.00848478 0.00905807 0.00629943 0.00671145 0.00905807 0.00958747 0.00671145 0.00759717 0.00958747 0.0102009 0.00759717 0.00824141 0.0102009 0.010844 0.00824141 0.00875653 0.010844 0.0114979 0.00875653 0.00926857 0.0114979 0.0121206 0.00926857 0.00985224 0.0121206 0.0127091 0.00985224 0.0103353 0.0127091 0.013284 0.0103353 0.0108814 0.013284 0.0139002 0.0108814 0.0114633 0.0139002 0.014547 0.0114633 0.0120554 0.014547 0.0151991 0.0120554 0.0126657 0.0151991 0.0158359 0.0126657 0.0132546 0.0158359 0.0164454 0.0132546 0.0138178 0.0164454 0.017045 0.0138178 0.0143719 0.017045 0.0176488 0.0143719 0.0149599 0.0176488 0.0182574 0.0149599 0.0155587 0.0182574 0.0188577 0.0155587 0.0161373 0.0188577 0.0194485 0.0161373 0.0166758 0.0194485 0.0200402 0.0166758 0.0172108 0.0200402 0.0206465 0.0172108 0.0177529 0.0206465 0.0212593 0.0177529 0.0182983 0.0212593 0.0218695 0.0182983 0.0188236 0.0218695 0.0224696 0.0188236 0.0193505 0.0224696 0.0230491 0.0193505 0.019895 0.0230491 0.0235928 0.019895 0.0204208 0.0235928 0.0241357 0.0204208 0.0208802 0.0241357 0.0246806 0.0208802 0.0213975 0.0246806 0.025213 0.0213975 0.0218004 0.025213 0.0256997 0.0218004 0.0221252 0.0256997 0.0261639 0.0221252 0.0224526 0.0261639 0.026633 0.0224526 0.022816 0.026633 0.0271123 0.022816 0.0232452 0.0271123 0.0275642 0.0232452 0.0237876 0.0275642 0.0279505 0.0237876 0.0245138 0.0279505 0.02838 0.0245138 0.0245999 0.02838 0.0286837 0.0245999 0.0246429 0.0286837 0.0289259 0.0246429 0.0247572 0.0289259 0.0291871 0.0247572 0.0248694 0.0291871 0.0294875 0.0248694 0.0250148 0.0294875 0.0298648 0.0250148 0.0252162 0.0298648 0.0303676 0.0252162 0.025495 0.0303676 0.0305138 0.025495 0.0257484 0.0305138 0.0305505 0.0257484 0.0258733 0.0305505 0.0306009 0.0258733 0.0259655 0.0306009 0.0306702 0.0259655 0.0260536 0.0306702 0.0307458 0.0260536 0.0261351 0.0307458 0.0308451 0.0261351 0.0262233 0.0308451 0.0309852 0.0262233 0.0263284 0.0309852 0.0311854 0.0263284 0.0264542 0.0311854 0.0313166 0.0264542 0.0265856 0.0313166 0.0313745 0.0265856 0.0266887 0.0313745 0.0314303 0.0266887 0.0267773 0.0314303 0.0314743 0.0267773 0.0268504 0.0314743 0.031516 0.0268504 0.026919 0.031516 0.0315667 0.026919 0.0269932 0.0315667 0.0316333 0.0269932 0.0270757 0.0316333 0.0317166 0.0270757 0.0271641 0.0317166 0.0317989 0.0271641 0.0272531 0.0317989 0.0318653 0.0272531 0.0273417 0.0318653 0.0319244 0.0273417 0.0274374 0.0319244 0.0319768 0.0274374 0.0275384 0.0319768 0.0320297 0.0275384 0.0276517 0.0320297 0.0320909 0.0276517 0.0277708 0.0320909 0.0321611 0.0277708 0.027886 0.0321611 0.032236 0.027886 0.0279949 0.032236 0.032312 0.0279949 0.0281012 0.032312 0.0323952 0.0281012 0.0282158 0.0323952 0.0324894 0.0282158 0.0283546 0.0324894 0.0325947 0.0283546 0.0285197 0.0325947 0.032715 0.0285197 0.028741 0.032715 0.0328433 0.028741 0.0289654 0.0328433 0.0329716 0.0289654 0.0291658 0.0329716 0.0331026 0.0291658 0.0293403 0.0331026 0.0332578 0.0293403 0.0294932 0.0332578 0.0334906 0.0294932 0.0296693 0.0334906 0.033847 0.0296693 0.0301843 0.033847 0.0342179 0.0301843 0.0310693 0.0342179 0.0345536 0.0310693 0.0319059 0.0345536 0.0348591 0.0319059 0.0324523 0.0348591 0.0350733 0.0324523 0.0325469 0.0350733 0.0351672 0.0325469 0.0325744 0.0351672 0.0351902 0.0325744 0.0325508 0.0351902 0.0351668 0.0325508 0.0324901 0 8.65202e-05 0 3.70485e-05 8.65202e-05 0.000194359 3.70485e-05 8.88747e-05 0.000194359 0.000311521 8.88747e-05 0.000147288 0.000311521 0.000428476 0.000147288 0.000205762 0.000428476 0.000540157 0.000205762 0.000261272 0.000540157 0.000645679 0.000261272 0.000313497 0.000645679 0.000745645 0.000313497 0.000363496 0.000745645 0.00084105 0.000363496 0.00041254 0.00084105 0.00093282 0.00041254 0.000461644 0.00093282 0.00102171 0.000461644 0.000511505 0.00102171 0.00110837 0.000511505 0.000562618 0.00110837 0.00119344 0.000562618 0.000615458 0.00119344 0.0012777 0.000615458 0.00067066 0.0012777 0.00136228 0.00067066 0.000729169 0.00136228 0.0014488 0.000729169 0.000792316 0.0014488 0.00153961 0.000792316 0.000861657 0.00153961 0.00163731 0.000861657 0.000938338 0.00163731 0.0017431 0.000938338 0.00102232 0.0017431 0.00185555 0.00102232 0.00111324 0.00185555 0.00197554 0.00111324 0.00121332 0.00197554 0.00210998 0.00121332 0.00132761 0.00210998 0.00226262 0.00132761 0.00145901 0.00226262 0.00243583 0.00145901 0.0016045 0.00243583 0.00264377 0.0016045 0.00176261 0.00264377 0.00286403 0.00176261 0.00194165 0.00286403 0.00307453 0.00194165 0.00214174 0.00307453 0.00331179 0.00214174 0.00236327 0.00331179 0.00368445 0.00236327 0.00262382 0.00368445 0.00403886 0.00262382 0.00289516 0.00403886 0.00428586 0.00289516 0.00314916 0.00428586 0.00446141 0.00314916 0.00341554 0.00446141 0.00471103 0.00341554 0.00378978 0.00471103 0.00528383 0.00378978 0.00420999 0.00528383 0.0058162 0.00420999 0.0045521 0.0058162 0.00608975 0.0045521 0.00478713 0.00608975 0.00619755 0.00478713 0.00495286 0.00619755 0.00629943 0.00495286 0.00522687 0.00629943 0.00671145 0.00522687 0.0058485 0.00671145 0.00759717 0.0058485 0.00638485 0.00759717 0.00824141 0.00638485 0.00669125 0.00824141 0.00875653 0.00669125 0.00683789 0.00875653 0.00926857 0.00683789 0.00691774 0.00926857 0.00985224 0.00691774 0.0070752 0.00985224 0.0103353 0.0070752 0.00797527 0.0103353 0.0108814 0.00797527 0.00863477 0.0108814 0.0114633 0.00863477 0.00913814 0.0114633 0.0120554 0.00913814 0.00957919 0.0120554 0.0126657 0.00957919 0.0100571 0.0126657 0.0132546 0.0100571 0.0106218 0.0132546 0.0138178 0.0106218 0.0111134 0.0138178 0.0143719 0.0111134 0.0116845 0.0143719 0.0149599 0.0116845 0.0122878 0.0149599 0.0155587 0.0122878 0.0128811 0.0155587 0.0161373 0.0128811 0.0134594 0.0161373 0.0166758 0.0134594 0.0139927 0.0166758 0.0172108 0.0139927 0.0144463 0.0172108 0.0177529 0.0144463 0.0149507 0.0177529 0.0182983 0.0149507 0.0153594 0.0182983 0.0188236 0.0153594 0.015724 0.0188236 0.0193505 0.015724 0.0161276 0.0193505 0.019895 0.0161276 0.0166112 0.019895 0.0204208 0.0166112 0.0172431 0.0204208 0.0208802 0.0172431 0.0181156 0.0208802 0.0213975 0.0181156 0.0183116 0.0213975 0.0218004 0.0183116 0.0183859 0.0218004 0.0221252 0.0183859 0.0185164 0.0221252 0.0224526 0.0185164 0.0186755 0.0224526 0.022816 0.0186755 0.0188617 0.022816 0.0232452 0.0188617 0.0191037 0.0232452 0.0237876 0.0191037 0.019425 0.0237876 0.0245138 0.019425 0.0198599 0.0245138 0.0245999 0.0198599 0.020115 0.0245999 0.0246429 0.020115 0.0202312 0.0246429 0.0247572 0.0202312 0.0203633 0.0247572 0.0248694 0.0203633 0.0204812 0.0248694 0.0250148 0.0204812 0.0206024 0.0250148 0.0252162 0.0206024 0.0207442 0.0252162 0.025495 0.0207442 0.0209079 0.025495 0.0257484 0.0209079 0.0210845 0.0257484 0.0258733 0.0210845 0.0212373 0.0258733 0.0259655 0.0212373 0.021358 0.0259655 0.0260536 0.021358 0.0214594 0.0260536 0.0261351 0.0214594 0.0215483 0.0261351 0.0262233 0.0215483 0.0216366 0.0262233 0.0263284 0.0216366 0.0217317 0.0263284 0.0264542 0.0217317 0.021833 0.0264542 0.0265856 0.021833 0.0219334 0.0265856 0.0266887 0.0219334 0.0220276 0.0266887 0.0267773 0.0220276 0.0221221 0.0267773 0.0268504 0.0221221 0.0222159 0.0268504 0.026919 0.0222159 0.0223157 0.026919 0.0269932 0.0223157 0.0224206 0.0269932 0.0270757 0.0224206 0.0225228 0.0270757 0.0271641 0.0225228 0.0226182 0.0271641 0.0272531 0.0226182 0.0227088 0.0272531 0.0273417 0.0227088 0.0228068 0.0273417 0.0274374 0.0228068 0.0229278 0.0274374 0.0275384 0.0229278 0.0230696 0.0275384 0.0276517 0.0230696 0.0232567 0.0276517 0.0277708 0.0232567 0.0234437 0.0277708 0.027886 0.0234437 0.0236084 0.027886 0.0279949 0.0236084 0.0237535 0.0279949 0.0281012 0.0237535 0.0238813 0.0281012 0.0282158 0.0238813 0.0240067 0.0282158 0.0283546 0.0240067 0.0241402 0.0283546 0.0285197 0.0241402 0.0242643 0.0285197 0.028741 0.0242643 0.0245351 0.028741 0.0289654 0.0245351 0.0249607 0.0289654 0.0291658 0.0249607 0.0252664 0.0291658 0.0293403 0.0252664 0.0254761 0.0293403 0.0294932 0.0254761 0.0256041 0.0294932 0.0296693 0.0256041 0.0256781 0.0296693 0.0301843 0.0256781 0.0259943 0.0301843 0.0310693 0.0259943 0.0298148 0.0310693 0.0319059 0.0298148 0.0297139 0.0319059 0.0324523 0.0297139 0.0297461 0.0324523 0.0325469 0.0297461 0.0298228 0.0325469 0.0325744 0.0298228 0.0298355 0.0325744 0.0325508 0.0298355 0.0297943 0.0325508 0.0324901 0.0297943 0.0297073 0 3.70485e-05 0 -1.34003e-05 3.70485e-05 8.88747e-05 -1.34003e-05 -1.71571e-05 8.88747e-05 0.000147288 -1.71571e-05 -1.80686e-05 0.000147288 0.000205762 -1.80686e-05 -1.95396e-05 0.000205762 0.000261272 -1.95396e-05 -2.19551e-0