# vtk DataFile Version 3.0
#This file was generated by the deal.II library on 2021/2/11 at 23:54:58
ASCII
DATASET UNSTRUCTURED_GRID

POINTS 28800 double
0 -0.5 0
0.0166667 -0.5 0
0 -0.483333 0
0.0166667 -0.483333 0
0.0166667 -0.5 0
0.0333333 -0.5 0
0.0166667 -0.483333 0
0.0333333 -0.483333 0
0.0333333 -0.5 0
0.05 -0.5 0
0.0333333 -0.483333 0
0.05 -0.483333 0
0.05 -0.5 0
0.0666667 -0.5 0
0.05 -0.483333 0
0.0666667 -0.483333 0
0.0666667 -0.5 0
0.0833333 -0.5 0
0.0666667 -0.483333 0
0.0833333 -0.483333 0
0.0833333 -0.5 0
0.1 -0.5 0
0.0833333 -0.483333 0
0.1 -0.483333 0
0.1 -0.5 0
0.116667 -0.5 0
0.1 -0.483333 0
0.116667 -0.483333 0
0.116667 -0.5 0
0.133333 -0.5 0
0.116667 -0.483333 0
0.133333 -0.483333 0
0.133333 -0.5 0
0.15 -0.5 0
0.133333 -0.483333 0
0.15 -0.483333 0
0.15 -0.5 0
0.166667 -0.5 0
0.15 -0.483333 0
0.166667 -0.483333 0
0.166667 -0.5 0
0.183333 -0.5 0
0.166667 -0.483333 0
0.183333 -0.483333 0
0.183333 -0.5 0
0.2 -0.5 0
0.183333 -0.483333 0
0.2 -0.483333 0
0.2 -0.5 0
0.216667 -0.5 0
0.2 -0.483333 0
0.216667 -0.483333 0
0.216667 -0.5 0
0.233333 -0.5 0
0.216667 -0.483333 0
0.233333 -0.483333 0
0.233333 -0.5 0
0.25 -0.5 0
0.233333 -0.483333 0
0.25 -0.483333 0
0.25 -0.5 0
0.266667 -0.5 0
0.25 -0.483333 0
0.266667 -0.483333 0
0.266667 -0.5 0
0.283333 -0.5 0
0.266667 -0.483333 0
0.283333 -0.483333 0
0.283333 -0.5 0
0.3 -0.5 0
0.283333 -0.483333 0
0.3 -0.483333 0
0.3 -0.5 0
0.316667 -0.5 0
0.3 -0.483333 0
0.316667 -0.483333 0
0.316667 -0.5 0
0.333333 -0.5 0
0.316667 -0.483333 0
0.333333 -0.483333 0
0.333333 -0.5 0
0.35 -0.5 0
0.333333 -0.483333 0
0.35 -0.483333 0
0.35 -0.5 0
0.366667 -0.5 0
0.35 -0.483333 0
0.366667 -0.483333 0
0.366667 -0.5 0
0.383333 -0.5 0
0.366667 -0.483333 0
0.383333 -0.483333 0
0.383333 -0.5 0
0.4 -0.5 0
0.383333 -0.483333 0
0.4 -0.483333 0
0.4 -0.5 0
0.416667 -0.5 0
0.4 -0.483333 0
0.416667 -0.483333 0
0.416667 -0.5 0
0.433333 -0.5 0
0.416667 -0.483333 0
0.433333 -0.483333 0
0.433333 -0.5 0
0.45 -0.5 0
0.433333 -0.483333 0
0.45 -0.483333 0
0.45 -0.5 0
0.466667 -0.5 0
0.45 -0.483333 0
0.466667 -0.483333 0
0.466667 -0.5 0
0.483333 -0.5 0
0.466667 -0.483333 0
0.483333 -0.483333 0
0.483333 -0.5 0
0.5 -0.5 0
0.483333 -0.483333 0
0.5 -0.483333 0
0.5 -0.5 0
0.516667 -0.5 0
0.5 -0.483333 0
0.516667 -0.483333 0
0.516667 -0.5 0
0.533333 -0.5 0
0.516667 -0.483333 0
0.533333 -0.483333 0
0.533333 -0.5 0
0.55 -0.5 0
0.533333 -0.483333 0
0.55 -0.483333 0
0.55 -0.5 0
0.566667 -0.5 0
0.55 -0.483333 0
0.566667 -0.483333 0
0.566667 -0.5 0
0.583333 -0.5 0
0.566667 -0.483333 0
0.583333 -0.483333 0
0.583333 -0.5 0
0.6 -0.5 0
0.583333 -0.483333 0
0.6 -0.483333 0
0.6 -0.5 0
0.616667 -0.5 0
0.6 -0.483333 0
0.616667 -0.483333 0
0.616667 -0.5 0
0.633333 -0.5 0
0.616667 -0.483333 0
0.633333 -0.483333 0
0.633333 -0.5 0
0.65 -0.5 0
0.633333 -0.483333 0
0.65 -0.483333 0
0.65 -0.5 0
0.666667 -0.5 0
0.65 -0.483333 0
0.666667 -0.483333 0
0.666667 -0.5 0
0.683333 -0.5 0
0.666667 -0.483333 0
0.683333 -0.483333 0
0.683333 -0.5 0
0.7 -0.5 0
0.683333 -0.483333 0
0.7 -0.483333 0
0.7 -0.5 0
0.716667 -0.5 0
0.7 -0.483333 0
0.716667 -0.483333 0
0.716667 -0.5 0
0.733333 -0.5 0
0.716667 -0.483333 0
0.733333 -0.483333 0
0.733333 -0.5 0
0.75 -0.5 0
0.733333 -0.483333 0
0.75 -0.483333 0
0.75 -0.5 0
0.766667 -0.5 0
0.75 -0.483333 0
0.766667 -0.483333 0
0.766667 -0.5 0
0.783333 -0.5 0
0.766667 -0.483333 0
0.783333 -0.483333 0
0.783333 -0.5 0
0.8 -0.5 0
0.783333 -0.483333 0
0.8 -0.483333 0
0.8 -0.5 0
0.816667 -0.5 0
0.8 -0.483333 0
0.816667 -0.483333 0
0.816667 -0.5 0
0.833333 -0.5 0
0.816667 -0.483333 0
0.833333 -0.483333 0
0.833333 -0.5 0
0.85 -0.5 0
0.833333 -0.483333 0
0.85 -0.483333 0
0.85 -0.5 0
0.866667 -0.5 0
0.85 -0.483333 0
0.866667 -0.483333 0
0.866667 -0.5 0
0.883333 -0.5 0
0.866667 -0.483333 0
0.883333 -0.483333 0
0.883333 -0.5 0
0.9 -0.5 0
0.883333 -0.483333 0
0.9 -0.483333 0
0.9 -0.5 0
0.916667 -0.5 0
0.9 -0.483333 0
0.916667 -0.483333 0
0.916667 -0.5 0
0.933333 -0.5 0
0.916667 -0.483333 0
0.933333 -0.483333 0
0.933333 -0.5 0
0.95 -0.5 0
0.933333 -0.483333 0
0.95 -0.483333 0
0.95 -0.5 0
0.966667 -0.5 0
0.95 -0.483333 0
0.966667 -0.483333 0
0.966667 -0.5 0
0.983333 -0.5 0
0.966667 -0.483333 0
0.983333 -0.483333 0
0.983333 -0.5 0
1 -0.5 0
0.983333 -0.483333 0
1 -0.483333 0
1 -0.5 0
1.01667 -0.5 0
1 -0.483333 0
1.01667 -0.483333 0
1.01667 -0.5 0
1.03333 -0.5 0
1.01667 -0.483333 0
1.03333 -0.483333 0
1.03333 -0.5 0
1.05 -0.5 0
1.03333 -0.483333 0
1.05 -0.483333 0
1.05 -0.5 0
1.06667 -0.5 0
1.05 -0.483333 0
1.06667 -0.483333 0
1.06667 -0.5 0
1.08333 -0.5 0
1.06667 -0.483333 0
1.08333 -0.483333 0
1.08333 -0.5 0
1.1 -0.5 0
1.08333 -0.483333 0
1.1 -0.483333 0
1.1 -0.5 0
1.11667 -0.5 0
1.1 -0.483333 0
1.11667 -0.483333 0
1.11667 -0.5 0
1.13333 -0.5 0
1.11667 -0.483333 0
1.13333 -0.483333 0
1.13333 -0.5 0
1.15 -0.5 0
1.13333 -0.483333 0
1.15 -0.483333 0
1.15 -0.5 0
1.16667 -0.5 0
1.15 -0.483333 0
1.16667 -0.483333 0
1.16667 -0.5 0
1.18333 -0.5 0
1.16667 -0.483333 0
1.18333 -0.483333 0
1.18333 -0.5 0
1.2 -0.5 0
1.18333 -0.483333 0
1.2 -0.483333 0
1.2 -0.5 0
1.21667 -0.5 0
1.2 -0.483333 0
1.21667 -0.483333 0
1.21667 -0.5 0
1.23333 -0.5 0
1.21667 -0.483333 0
1.23333 -0.483333 0
1.23333 -0.5 0
1.25 -0.5 0
1.23333 -0.483333 0
1.25 -0.483333 0
1.25 -0.5 0
1.26667 -0.5 0
1.25 -0.483333 0
1.26667 -0.483333 0
1.26667 -0.5 0
1.28333 -0.5 0
1.26667 -0.483333 0
1.28333 -0.483333 0
1.28333 -0.5 0
1.3 -0.5 0
1.28333 -0.483333 0
1.3 -0.483333 0
1.3 -0.5 0
1.31667 -0.5 0
1.3 -0.483333 0
1.31667 -0.483333 0
1.31667 -0.5 0
1.33333 -0.5 0
1.31667 -0.483333 0
1.33333 -0.483333 0
1.33333 -0.5 0
1.35 -0.5 0
1.33333 -0.483333 0
1.35 -0.483333 0
1.35 -0.5 0
1.36667 -0.5 0
1.35 -0.483333 0
1.36667 -0.483333 0
1.36667 -0.5 0
1.38333 -0.5 0
1.36667 -0.483333 0
1.38333 -0.483333 0
1.38333 -0.5 0
1.4 -0.5 0
1.38333 -0.483333 0
1.4 -0.483333 0
1.4 -0.5 0
1.41667 -0.5 0
1.4 -0.483333 0
1.41667 -0.483333 0
1.41667 -0.5 0
1.43333 -0.5 0
1.41667 -0.483333 0
1.43333 -0.483333 0
1.43333 -0.5 0
1.45 -0.5 0
1.43333 -0.483333 0
1.45 -0.483333 0
1.45 -0.5 0
1.46667 -0.5 0
1.45 -0.483333 0
1.46667 -0.483333 0
1.46667 -0.5 0
1.48333 -0.5 0
1.46667 -0.483333 0
1.48333 -0.483333 0
1.48333 -0.5 0
1.5 -0.5 0
1.48333 -0.483333 0
1.5 -0.483333 0
1.5 -0.5 0
1.51667 -0.5 0
1.5 -0.483333 0
1.51667 -0.483333 0
1.51667 -0.5 0
1.53333 -0.5 0
1.51667 -0.483333 0
1.53333 -0.483333 0
1.53333 -0.5 0
1.55 -0.5 0
1.53333 -0.483333 0
1.55 -0.483333 0
1.55 -0.5 0
1.56667 -0.5 0
1.55 -0.483333 0
1.56667 -0.483333 0
1.56667 -0.5 0
1.58333 -0.5 0
1.56667 -0.483333 0
1.58333 -0.483333 0
1.58333 -0.5 0
1.6 -0.5 0
1.58333 -0.483333 0
1.6 -0.483333 0
1.6 -0.5 0
1.61667 -0.5 0
1.6 -0.483333 0
1.61667 -0.483333 0
1.61667 -0.5 0
1.63333 -0.5 0
1.61667 -0.483333 0
1.63333 -0.483333 0
1.63333 -0.5 0
1.65 -0.5 0
1.63333 -0.483333 0
1.65 -0.483333 0
1.65 -0.5 0
1.66667 -0.5 0
1.65 -0.483333 0
1.66667 -0.483333 0
1.66667 -0.5 0
1.68333 -0.5 0
1.66667 -0.483333 0
1.68333 -0.483333 0
1.68333 -0.5 0
1.7 -0.5 0
1.68333 -0.483333 0
1.7 -0.483333 0
1.7 -0.5 0
1.71667 -0.5 0
1.7 -0.483333 0
1.71667 -0.483333 0
1.71667 -0.5 0
1.73333 -0.5 0
1.71667 -0.483333 0
1.73333 -0.483333 0
1.73333 -0.5 0
1.75 -0.5 0
1.73333 -0.483333 0
1.75 -0.483333 0
1.75 -0.5 0
1.76667 -0.5 0
1.75 -0.483333 0
1.76667 -0.483333 0
1.76667 -0.5 0
1.78333 -0.5 0
1.76667 -0.483333 0
1.78333 -0.483333 0
1.78333 -0.5 0
1.8 -0.5 0
1.78333 -0.483333 0
1.8 -0.483333 0
1.8 -0.5 0
1.81667 -0.5 0
1.8 -0.483333 0
1.81667 -0.483333 0
1.81667 -0.5 0
1.83333 -0.5 0
1.81667 -0.483333 0
1.83333 -0.483333 0
1.83333 -0.5 0
1.85 -0.5 0
1.83333 -0.483333 0
1.85 -0.483333 0
1.85 -0.5 0
1.86667 -0.5 0
1.85 -0.483333 0
1.86667 -0.483333 0
1.86667 -0.5 0
1.88333 -0.5 0
1.86667 -0.483333 0
1.88333 -0.483333 0
1.88333 -0.5 0
1.9 -0.5 0
1.88333 -0.483333 0
1.9 -0.483333 0
1.9 -0.5 0
1.91667 -0.5 0
1.9 -0.483333 0
1.91667 -0.483333 0
1.91667 -0.5 0
1.93333 -0.5 0
1.91667 -0.483333 0
1.93333 -0.483333 0
1.93333 -0.5 0
1.95 -0.5 0
1.93333 -0.483333 0
1.95 -0.483333 0
1.95 -0.5 0
1.96667 -0.5 0
1.95 -0.483333 0
1.96667 -0.483333 0
1.96667 -0.5 0
1.98333 -0.5 0
1.96667 -0.483333 0
1.98333 -0.483333 0
1.98333 -0.5 0
2 -0.5 0
1.98333 -0.483333 0
2 -0.483333 0
0 -0.483333 0
0.0166667 -0.483333 0
0 -0.466667 0
0.0166667 -0.466667 0
0.0166667 -0.483333 0
0.0333333 -0.483333 0
0.0166667 -0.466667 0
0.0333333 -0.466667 0
0.0333333 -0.483333 0
0.05 -0.483333 0
0.0333333 -0.466667 0
0.05 -0.466667 0
0.05 -0.483333 0
0.0666667 -0.483333 0
0.05 -0.466667 0
0.0666667 -0.466667 0
0.0666667 -0.483333 0
0.0833333 -0.483333 0
0.0666667 -0.466667 0
0.0833333 -0.466667 0
0.0833333 -0.483333 0
0.1 -0.483333 0
0.0833333 -0.466667 0
0.1 -0.466667 0
0.1 -0.483333 0
0.116667 -0.483333 0
0.1 -0.466667 0
0.116667 -0.466667 0
0.116667 -0.483333 0
0.133333 -0.483333 0
0.116667 -0.466667 0
0.133333 -0.466667 0
0.133333 -0.483333 0
0.15 -0.483333 0
0.133333 -0.466667 0
0.15 -0.466667 0
0.15 -0.483333 0
0.166667 -0.483333 0
0.15 -0.466667 0
0.166667 -0.466667 0
0.166667 -0.483333 0
0.183333 -0.483333 0
0.166667 -0.466667 0
0.183333 -0.466667 0
0.183333 -0.483333 0
0.2 -0.483333 0
0.183333 -0.466667 0
0.2 -0.466667 0
0.2 -0.483333 0
0.216667 -0.483333 0
0.2 -0.466667 0
0.216667 -0.466667 0
0.216667 -0.483333 0
0.233333 -0.483333 0
0.216667 -0.466667 0
0.233333 -0.466667 0
0.233333 -0.483333 0
0.25 -0.483333 0
0.233333 -0.466667 0
0.25 -0.466667 0
0.25 -0.483333 0
0.266667 -0.483333 0
0.25 -0.466667 0
0.266667 -0.466667 0
0.266667 -0.483333 0
0.283333 -0.483333 0
0.266667 -0.466667 0
0.283333 -0.466667 0
0.283333 -0.483333 0
0.3 -0.483333 0
0.283333 -0.466667 0
0.3 -0.466667 0
0.3 -0.483333 0
0.316667 -0.483333 0
0.3 -0.466667 0
0.316667 -0.466667 0
0.316667 -0.483333 0
0.333333 -0.483333 0
0.316667 -0.466667 0
0.333333 -0.466667 0
0.333333 -0.483333 0
0.35 -0.483333 0
0.333333 -0.466667 0
0.35 -0.466667 0
0.35 -0.483333 0
0.366667 -0.483333 0
0.35 -0.466667 0
0.366667 -0.466667 0
0.366667 -0.483333 0
0.383333 -0.483333 0
0.366667 -0.466667 0
0.383333 -0.466667 0
0.383333 -0.483333 0
0.4 -0.483333 0
[...]
POINT_DATA 28800
SCALARS x1_displacement double 1
LOOKUP_TABLE default
0 0.000211705 0 0.000121684 0.000211705 0.000414015 0.000121684 0.000271529 0.000414015 0.000608063 0.000271529 0.00041338 0.000608063 0.000791953 0.00041338 0.000545567 0.000791953 0.000961281 0.000545567 0.000667473 0.000961281 0.00111426 0.000667473 0.000778894 0.00111426 0.00125055 0.000778894 0.00087987 0.00125055 0.00137058 0.00087987 0.000970569 0.00137058 0.00147522 0.000970569 0.00105123 0.00147522 0.00156596 0.00105123 0.00112219 0.00156596 0.00164559 0.00112219 0.00118422 0.00164559 0.00171882 0.00118422 0.00123899 0.00171882 0.00179191 0.00123899 0.00128956 0.00179191 0.00187051 0.00128956 0.00133938 0.00187051 0.00195701 0.00133938 0.00139015 0.00195701 0.00204999 0.00139015 0.00144148 0.00204999 0.00214628 0.00144148 0.00149237 0.00214628 0.0022432 0.00149237 0.00154243 0.0022432 0.00233927 0.00154243 0.00159169 0.00233927 0.00243387 0.00159169 0.0016402 0.00243387 0.00252679 0.0016402 0.00168795 0.00252679 0.00261794 0.00168795 0.0017349 0.00261794 0.00270729 0.0017349 0.00178107 0.00270729 0.00279484 0.00178107 0.00182644 0.00279484 0.00288058 0.00182644 0.00187101 0.00288058 0.00296451 0.00187101 0.00191478 0.00296451 0.00304663 0.00191478 0.00195775 0.00304663 0.00312694 0.00195775 0.00199993 0.00312694 0.00320544 0.00199993 0.00204131 0.00320544 0.00328214 0.00204131 0.00208189 0.00328214 0.00335702 0.00208189 0.00212167 0.00335702 0.0034301 0.00212167 0.00216065 0.0034301 0.00350136 0.00216065 0.00219883 0.00350136 0.00357082 0.00219883 0.00223622 0.00357082 0.00363847 0.00223622 0.00227281 0.00363847 0.00370432 0.00227281 0.0023086 0.00370432 0.00376835 0.0023086 0.00234359 0.00376835 0.00383058 0.00234359 0.00237779 0.00383058 0.003891 0.00237779 0.00241119 0.003891 0.00394961 0.00241119 0.00244379 0.00394961 0.00400642 0.00244379 0.00247559 0.00400642 0.00406142 0.00247559 0.0025066 0.00406142 0.00411461 0.0025066 0.0025368 0.00411461 0.00416599 0.0025368 0.00256621 0.00416599 0.00421557 0.00256621 0.00259483 0.00421557 0.00426335 0.00259483 0.00262264 0.00426335 0.00430931 0.00262264 0.00264966 0.00430931 0.00435347 0.00264966 0.00267588 0.00435347 0.00439582 0.00267588 0.00270131 0.00439582 0.00443637 0.00270131 0.00272594 0.00443637 0.00447511 0.00272594 0.00274977 0.00447511 0.00451205 0.00274977 0.0027728 0.00451205 0.00454718 0.0027728 0.00279504 0.00454718 0.00458051 0.00279504 0.00281648 0.00458051 0.00461202 0.00281648 0.00283712 0.00461202 0.00464174 0.00283712 0.00285697 0.00464174 0.00466965 0.00285697 0.00287602 0.00466965 0.00469575 0.00287602 0.00289427 0.00469575 0.00472005 0.00289427 0.00291173 0.00472005 0.00474254 0.00291173 0.00292839 0.00474254 0.00476323 0.00292839 0.00294425 0.00476323 0.00478211 0.00294425 0.00295932 0.00478211 0.00479919 0.00295932 0.00297359 0.00479919 0.00481446 0.00297359 0.00298707 0.00481446 0.00482792 0.00298707 0.00299975 0.00482792 0.00483957 0.00299975 0.00301165 0.00483957 0.00484947 0.00301165 0.00302273 0.00484947 0.00485788 0.00302273 0.00303295 0.00485788 0.00486546 0.00303295 0.00304239 0.00486546 0.00487308 0.00304239 0.00305149 0.00487308 0.00488099 0.00305149 0.0030607 0.00488099 0.00488769 0.0030607 0.00306935 0.00488769 0.00489028 0.00306935 0.00307552 0.00489028 0.00488632 0.00307552 0.0030776 0.00488632 0.00487504 0.0030776 0.00307538 0.00487504 0.00485695 0.00307538 0.00306922 0.00485695 0.00483285 0.00306922 0.00305931 0.00483285 0.00480353 0.00305931 0.00304574 0.00480353 0.00476984 0.00304574 0.00302885 0.00476984 0.00473241 0.00302885 0.00300912 0.00473241 0.00469098 0.00300912 0.00298636 0.00469098 0.00464474 0.00298636 0.00295884 0.00464474 0.0045953 0.00295884 0.0029232 0.0045953 0.00455031 0.0029232 0.00287553 0.00455031 0.00451973 0.00287553 0.00281172 0.00451973 0.00450296 0.00281172 0.00273192 0.00450296 0.00449095 0.00273192 0.00264118 0.00449095 0.00447686 0.00264118 0.00254835 0.00447686 0.00445925 0.00254835 0.00245559 0.00445925 0.00443717 0.00245559 0.00236316 0.00443717 0.00440987 0.00236316 0.00227135 0.00440987 0.00437701 0.00227135 0.00218047 0.00437701 0.00433846 0.00218047 0.00209062 0.00433846 0.00429419 0.00209062 0.00200183 0.00429419 0.00424417 0.00200183 0.00191412 0.00424417 0.00418839 0.00191412 0.00182749 0.00418839 0.00412686 0.00182749 0.00174194 0.00412686 0.00405958 0.00174194 0.00165748 0.00405958 0.00398654 0.00165748 0.0015741 0.00398654 0.00390774 0.0015741 0.0014918 0.00390774 0.00382318 0.0014918 0.00141059 0.00382318 0.00373286 0.00141059 0.00133046 0.00373286 0.00363679 0.00133046 0.00125142 0.00363679 0.00353496 0.00125142 0.00117347 0.00353496 0.00342737 0.00117347 0.0010966 0.00342737 0.00331401 0.0010966 0.00102081 0.00331401 0.0031949 0.00102081 0.000946107 0.0031949 0.00307004 0.000946107 0.000872488 0.00307004 0.00293942 0.000872488 0.00079995 0.00293942 0.00280305 0.00079995 0.000728487 0.00280305 0.00266096 0.000728487 0.000658081 0.00266096 0.0025132 0.000658081 0.000588697 0.0025132 0.00235982 0.000588697 0.000520354 0.00235982 0.00220116 0.000520354 0.00045266 0.00220116 0.00203823 0.00045266 0.000384538 0.00203823 0.00188021 0.000384538 0.000309009 0.00188021 0.00174607 0.000309009 0.000234292 0.00174607 0.00165455 0.000234292 0.000180016 0.00165455 0.00161356 0.000180016 0.000154567 0.00161356 0.00160616 0.000154567 0.000154889 0 0.000121684 0 6.88693e-05 0.000121684 0.000271529 6.88693e-05 0.000153213 0.000271529 0.00041338 0.000153213 0.000240808 0.00041338 0.000545567 0.000240808 0.000322816 0.000545567 0.000667473 0.000322816 0.000398695 0.000667473 0.000778894 0.000398695 0.000469116 0.000778894 0.00087987 0.000469116 0.000534623 0.00087987 0.000970569 0.000534623 0.000595259 0.000970569 0.00105123 0.000595259 0.000650508 0.00105123 0.00112219 0.000650508 0.000699211 0.00112219 0.00118422 0.000699211 0.000739585 0.00118422 0.00123899 0.000739585 0.000770124 0.00123899 0.00128956 0.000770124 0.000791907 0.00128956 0.00133938 0.000791907 0.000808935 0.00133938 0.00139015 0.000808935 0.000823214 0.00139015 0.00144148 0.000823214 0.000833333 0.00144148 0.00149237 0.000833333 0.000839301 0.00149237 0.00154243 0.000839301 0.000842922 0.00154243 0.00159169 0.000842922 0.000845748 0.00159169 0.0016402 0.000845748 0.000848372 0.0016402 0.00168795 0.000848372 0.000851031 0.00168795 0.0017349 0.000851031 0.000853833 0.0017349 0.00178107 0.000853833 0.000856824 0.00178107 0.00182644 0.000856824 0.00086002 0.00182644 0.00187101 0.00086002 0.000863424 0.00187101 0.00191478 0.000863424 0.00086704 0.00191478 0.00195775 0.00086704 0.000870869 0.00195775 0.00199993 0.000870869 0.000874909 0.00199993 0.00204131 0.000874909 0.000879162 0.00204131 0.00208189 0.000879162 0.000883627 0.00208189 0.00212167 0.000883627 0.000888304 0.00212167 0.00216065 0.000888304 0.000893194 0.00216065 0.00219883 0.000893194 0.000898295 0.00219883 0.00223622 0.000898295 0.00090361 0.00223622 0.00227281 0.00090361 0.000909136 0.00227281 0.0023086 0.000909136 0.000914875 0.0023086 0.00234359 0.000914875 0.000920825 0.00234359 0.00237779 0.000920825 0.000926988 0.00237779 0.00241119 0.000926988 0.000933364 0.00241119 0.00244379 0.000933364 0.000939951 0.00244379 0.00247559 0.000939951 0.00094675 0.00247559 0.0025066 0.00094675 0.000953762 0.0025066 0.0025368 0.000953762 0.000960986 0.0025368 0.00256621 0.000960986 0.000968421 0.00256621 0.00259483 0.000968421 0.000976069 0.00259483 0.00262264 0.000976069 0.000983929 0.00262264 0.00264966 0.000983929 0.000992001 0.00264966 0.00267588 0.000992001 0.00100028 0.00267588 0.00270131 0.00100028 0.00100878 0.00270131 0.00272594 0.00100878 0.00101749 0.00272594 0.00274977 0.00101749 0.00102641 0.00274977 0.0027728 0.00102641 0.00103554 0.0027728 0.00279504 0.00103554 0.00104488 0.00279504 0.00281648 0.00104488 0.00105444 0.00281648 0.00283712 0.00105444 0.00106421 0.00283712 0.00285697 0.00106421 0.00107419 0.00285697 0.00287602 0.00107419 0.00108438 0.00287602 0.00289427 0.00108438 0.00109478 0.00289427 0.00291173 0.00109478 0.0011054 0.00291173 0.00292839 0.0011054 0.00111622 0.00292839 0.00294425 0.00111622 0.00112726 0.00294425 0.00295932 0.00112726 0.00113852 0.00295932 0.00297359 0.00113852 0.00114998 0.00297359 0.00298707 0.00114998 0.00116166 0.00298707 0.00299975 0.00116166 0.00117354 0.00299975 0.00301165 0.00117354 0.00118561 0.00301165 0.00302273 0.00118561 0.00119776 0.00302273 0.00303295 0.00119776 0.00120966 0.00303295 0.00304239 0.00120966 0.00122066 0.00304239 0.00305149 0.00122066 0.00123105 0.00305149 0.0030607 0.00123105 0.00124289 0.0030607 0.00306935 0.00124289 0.00125684 0.00306935 0.00307552 0.00125684 0.00126944 0.00307552 0.0030776 0.00126944 0.0012787 0.0030776 0.00307538 0.0012787 0.00128551 0.00307538 0.00306922 0.00128551 0.00129095 0.00306922 0.00305931 0.00129095 0.00129477 0.00305931 0.00304574 0.00129477 0.00129631 0.00304574 0.00302885 0.00129631 0.00129565 0.00302885 0.00300912 0.00129565 0.001294 0.00300912 0.00298636 0.001294 0.00129181 0.00298636 0.00295884 0.00129181 0.00128626 0.00295884 0.0029232 0.00128626 0.00127013 0.0029232 0.00287553 0.00127013 0.00122997 0.00287553 0.00281172 0.00122997 0.00113674 0.00281172 0.00273192 0.00113674 0.000973074 0.00273192 0.00264118 0.000973074 0.000797184 0.00264118 0.00254835 0.000797184 0.000625247 0.00254835 0.00245559 0.000625247 0.000457168 0.00245559 0.00236316 0.000457168 0.00029387 0.00236316 0.00227135 0.00029387 0.000137425 0.00227135 0.00218047 0.000137425 -1.15118e-05 0.00218047 0.00209062 -1.15118e-05 -0.000152685 0.00209062 0.00200183 -0.000152685 -0.000285995 0.00200183 0.00191412 -0.000285995 -0.000411403 0.00191412 0.00182749 -0.000411403 -0.000528894 0.00182749 0.00174194 -0.000528894 -0.000638463 0.00174194 0.00165748 -0.000638463 -0.000740108 0.00165748 0.0015741 -0.000740108 -0.000833826 0.0015741 0.0014918 -0.000833826 -0.000919617 0.0014918 0.00141059 -0.000919617 -0.00099748 0.00141059 0.00133046 -0.00099748 -0.00106742 0.00133046 0.00125142 -0.00106742 -0.00112942 0.00125142 0.00117347 -0.00112942 -0.0011835 0.00117347 0.0010966 -0.0011835 -0.00122965 0.0010966 0.00102081 -0.00122965 -0.00126788 0.00102081 0.000946107 -0.00126788 -0.00129817 0.000946107 0.000872488 -0.00129817 -0.00132054 0.000872488 0.00079995 -0.00132054 -0.00133499 0.00079995 0.000728487 -0.00133499 -0.00134154 0.000728487 0.000658081 -0.00134154 -0.00134024 0.000658081 0.000588697 -0.00134024 -0.00133122 0.000588697 0.000520354 -0.00133122 -0.00131486 0.000520354 0.00045266 -0.00131486 -0.00129221 0.00045266 0.000384538 -0.00129221 -0.00127297 0.000384538 0.000309009 -0.00127297 -0.00127324 0.000309009 0.000234292 -0.00127324 -0.00131553 0.000234292 0.000180016 -0.00131553 -0.00134305 0.000180016 0.000154567 -0.00134305 -0.00134186 0.000154567 0.000154889 -0.00134186 -0.00131603 0 6.88693e-05 0 1.98331e-05 6.88693e-05 0.000153213 1.98331e-05 4.86345e-05 0.000153213 0.000240808 4.86345e-05 7.97258e-05 0.000240808 0.000322816 7.97258e-05 0.00011019 0.000322816 0.000398695 0.00011019 0.000139834 0.000398695 0.000469116 0.000139834 0.000169754 0.000469116 0.000534623 0.000169754 0.000200512 0.000534623 0.000595259 0.000200512 0.000231861 0.000595259 0.000650508 0.000231861 0.0002627 0.000650508 0.000699211 0.0002627 0.000290862 0.000699211 0.000739585 0.000290862 0.000312733 0.000739585 0.000770124 0.000312733 0.000323004 0.000770124 0.000791907 0.000323004 0.000317916 0.000791907 0.000808935 0.000317916 0.000299951 0.000808935 0.000823214 0.000299951 0.000270881 0.000823214 0.000833333 0.000270881 0.000231985 0.000833333 0.000839301 0.000231985 0.000188154 0.000839301 0.000842922 0.000188154 0.000143726 0.000842922 0.000845748 0.000143726 9.95941e-05 0.000845748 0.000848372 9.95941e-05 5.61177e-05 0.000848372 0.000851031 5.61177e-05 1.36173e-05 0.000851031 0.000853833 1.36173e-05 -2.77573e-05 0.000853833 0.000856824 -2.77573e-05 -6.79462e-05 0.000856824 0.00086002 -6.79462e-05 -0.000106926 0.00086002 0.000863424 -0.000106926 -0.000144688 0.000863424 0.00086704 -0.000144688 -0.000181228 0.00086704 0.000870869 -0.000181228 -0.000216546 0.000870869 0.000874909 -0.000216546 -0.000250641 0.000874909 0.000879162 -0.000250641 -0.000283513 0.000879162 0.000883627 -0.000283513 -0.000315162 0.000883627 0.000888304 -0.000315162 -0.000345588 0.000888304 0.000893194 -0.000345588 -0.000374792 0.000893194 0.000898295 -0.000374792 -0.000402773 0.000898295 0.00090361 -0.000402773 -0.000429531 0.00090361 0.000909136 -0.000429531 -0.000455067 0.000909136 0.000914875 -0.000455067 -0.000479381 0.000914875 0.000920825 -0.000479381 -0.000502472 0.000920825 0.000926988 -0.000502472 -0.000524342 0.000926988 0.000933364 -0.000524342 -0.000544989 0.000933364 0.000939951 -0.000544989 -0.000564415 0.000939951 0.00094675 -0.000564415 -0.000582619 0.00094675 0.000953762 -0.000582619 -0.000599601 0.000953762 0.000960986 -0.000599601 -0.000615361 0.000960986 0.000968421 -0.000615361 -0.0006299 0.000968421 0.000976069 -0.0006299 -0.000643218 0.000976069 0.000983929 -0.000643218 -0.000655315 0.000983929 0.000992001 -0.000655315 -0.00066619 0.000992001 0.00100028 -0.00066619 -0.000675844 0.00100028 0.00100878 -0.000675844 -0.000684277 0.00100878 0.00101749 -0.000684277 -0.000691489 0.00101749 0.00102641 -0.000691489 -0.00069748 0.00102641 0.00103554 -0.00069748 -0.00070225 0.00103554 0.00104488 -0.00070225 -0.0007058 0.00104488 0.00105444 -0.0007058 -0.000708129 0.00105444 0.00106421 -0.000708129 -0.000709237 0.00106421 0.00107419 -0.000709237 -0.000709124 0.00107419 0.00108438 -0.000709124 -0.000707791 0.00108438 0.00109478 -0.000707791 -0.000705237 0.00109478 0.0011054 -0.000705237 -0.000701463 0.0011054 0.00111622 -0.000701463 -0.000696468 0.00111622 0.00112726 -0.000696468 -0.000690254 0.00112726 0.00113852 -0.000690254 -0.000682819 0.00113852 0.00114998 -0.000682819 -0.000674165 0.00114998 0.00116166 -0.000674165 -0.000664294 0.00116166 0.00117354 -0.000664294 -0.000653214 0.00117354 0.00118561 -0.000653214 -0.00064095 0.00118561 0.00119776 -0.00064095 -0.000627561 0.00119776 0.00120966 -0.000627561 -0.000613205 0.00120966 0.00122066 -0.000613205 -0.00059861 0.00122066 0.00123105 -0.00059861 -0.000586143 0.00123105 0.00124289 -0.000586143 -0.000573374 0.00124289 0.00125684 -0.000573374 -0.000555422 0.00125684 0.00126944 -0.000555422 -0.000535215 0.00126944 0.0012787 -0.000535215 -0.000517853 0.0012787 0.00128551 -0.000517853 -0.000500586 0.00128551 0.00129095 -0.000500586 -0.000482839 0.00129095 0.00129477 -0.000482839 -0.000465 0.00129477 0.00129631 -0.000465 -0.00044786 0.00129631 0.00129565 -0.00044786 -0.000431852 0.00129565 0.001294 -0.000431852 -0.000415232 0.001294 0.00129181 -0.000415232 -0.00039559 0.00129181 0.00128626 -0.00039559 -0.00037485 0.00128626 0.00127013 -0.00037485 -0.000356511 0.00127013 0.00122997 -0.000356511 -0.000343876 0.00122997 0.00113674 -0.000343876 -0.000346054 0.00113674 0.000973074 -0.000346054 -0.0004018 0.000973074 0.000797184 -0.0004018 -0.000661653 0.000797184 0.000625247 -0.000661653 -0.00105066 0.000625247 0.000457168 -0.00105066 -0.00143424 0.000457168 0.00029387 -0.00143424 -0.00172634 0.00029387 0.000137425 -0.00172634 -0.00196938 0.000137425 -1.15118e-05 -0.00196938 -0.00218476 -1.15118e-05 -0.000152685 -0.00218476 -0.00238045 -0.000152685 -0.000285995 -0.00238045 -0.00255951 -0.000285995 -0.000411403 -0.00255951 -0.00272309 -0.000411403 -0.000528894 -0.00272309 -0.00287163 -0.000528894 -0.000638463 -0.00287163 -0.00300529 -0.000638463 -0.000740108 -0.00300529 -0.00312415 -0.000740108 -0.000833826 -0.00312415 -0.00322821 -0.000833826 -0.000919617 -0.00322821 -0.0033175 -0.000919617 -0.00099748 -0.0033175 -0.00339202 -0.00099748 -0.00106742 -0.00339202 -0.00345176 -0.00106742 -0.00112942 -0.00345176 -0.00349673 -0.00112942 -0.0011835 -0.00349673 -0.00352692 -0.0011835 -0.00122965 -0.00352692 -0.00354234 -0.00122965 -0.00126788 -0.00354234 -0.00354296 -0.00126788 -0.00129817 -0.00354296 -0.00352876 -0.00129817 -0.00132054 -0.00352876 -0.00349966 -0.00132054 -0.00133499 -0.00349966 -0.00345546 -0.00133499 -0.00134154 -0.00345546 -0.00339563 -0.00134154 -0.00134024 -0.00339563 -0.00331876 -0.00134024 -0.00133122 -0.00331876 -0.00322111 -0.00133122 -0.00131486 -0.00322111 -0.00309371 -0.00131486 -0.00129221 -0.00309371 -0.00290383 -0.00129221 -0.00127297 -0.00290383 -0.00266985 -0.00127297 -0.00127324 -0.00266985 -0.00276867 -0.00127324 -0.00131553 -0.00276867 -0.00283491 -0.00131553 -0.00134305 -0.00283491 -0.00283837 -0.00134305 -0.00134186 -0.00283837 -0.00280781 -0.00134186 -0.00131603 -0.00280781 -0.00275515 0 1.98331e-05 0 -3.10258e-05 1.98331e-05 4.86345e-05 -3.10258e-05 -5.96642e-05 4.86345e-05 7.97258e-05 -5.96642e-05 -8.62235e-05 7.97258e-05 0.00011019 -8.62235e-05 -0.000108735 0.00011019 0.000139834 -0.000108735 -0.000124978 0.000139834 0.000169754 -0.000124978 -0.000134093 0.000169754 0.000200512 -0.000134093 -0.000136221 0.000200512 0.000231861 -0.000136221 -0.000132092 0.000231861 0.0002627 -0.000132092 -0.000123041 0.0002627 0.000290862 -0.000123041 -0.000111232 0.000290862 0.000312733 -0.000111232 -0.000100121 0.000312733 0.000323004 -0.000100121 -9.55862e-05 0.000323004 0.000317916 -9.55862e-05 -0.000107951 0.000317916 0.000299951 -0.000107951 -0.000148713 0.000299951 0.000270881 -0.000148713 -0.000242912 0.000270881 0.000231985 -0.000242912 -0.000357525 0.000231985 0.000188154 -0.000357525 -0.000458767 0.000188154 0.000143726 -0.000458767 -0.000553637 0.000143726 9.95941e-05 -0.000553637 -0.000646031 9.95941e-05 5.61177e-05 -0.000646031 -0.000736149 5.61177e-05 1.36173e-05 -0.000736149 -0.000824009 1.36173e-05 -2.77573e-05 -0.000824009 -0.000909635 -2.77573e-05 -6.79462e-05 -0.000909635 -0.000993031 -6.79462e-05 -0.000106926 -0.000993031 -0.0010742 -0.000106926 -0.000144688 -0.0010742 -0.00115313 -0.000144688 -0.000181228 -0.00115313 -0.00122983 -0.000181228 -0.000216546 -0.00122983 -0.00130429 -0.000216546 -0.000250641 -0.00130429 -0.00137652 -0.000250641 -0.000283513 -0.00137652 -0.00144652 -0.000283513 -0.000315162 -0.00144652 -0.00151428 -0.000315162 -0.000345588 -0.00151428 -0.00157981 -0.000345588 -0.000374792 -0.00157981 -0.00164311 -0.000374792 -0.000402773 -0.00164311 -0.00170417 -0.000402773 -0.000429531 -0.00170417 -0.001763 -0.000429531 -0.000455067 -0.001763 -0.0018196 -0.000455067 -0.000479381 -0.0018196 -0.00187397 -0.000479381 -0.000502472 -0.00187397 -0.0019261 -0.000502472 -0.000524342 -0.0019261 -0.001976 -0.000524342 -0.000544989 -0.001976 -0.00202367 -0.000544989 -0.000564415 -0.00202367 -0.00206911 -0.000564415 -0.000582619 -0.00206911 -0.00211232 -0.000582619 -0.000599601 -0.00211232 -0.00215329 -0.000599601 -0.000615361 -0.00215329 -0.00219204 -0.000615361 -0.0006299 -0.00219204 -0.00222855 -0.0006299 -0.000643218 -0.00222855 -0.00226284 -0.000643218 -0.000655315 -0.00226284 -0.00229489 -0.000655315 -0.00066619 -0.00229489 -0.00232471 -0.00066619 -0.000675844 -0.00232471 -0.0023523 -0.000675844 -0.000684277 -0.0023523 -0.00237766 -0.000684277 -0.000691489 -0.00237766 -0.0024008 -0.000691489 -0.00069748 -0.0024008 -0.0024217 -0.00069748 -0.00070225 -0.0024217 -0.00244037 -0.00070225 -0.0007058 -0.00244037 -0.00245681 -0.0007058 -0.000708129 -0.00245681 -0.00247103 -0.000708129 -0.000709237 -0.00247103 -0.00248301 -0.000709237 -0.000709124 -0.00248301 -0.00249277 -0.000709124 -0.000707791 -0.00249277 -0.00250029 -0.000707791 -0.000705237 -0.00250029 -0.00250559 -0.000705237 -0.000701463 -0.00250559 -0.00250865 -0.000701463 -0.000696468 -0.00250865 -0.00250949 -0.000696468 -0.000690254 -0.00250949 -0.0025081 -0.000690254 -0.000682819 -0.0025081 -0.00250448 -0.000682819 -0.000674165 -0.00250448 -0.00249864 -0.000674165 -0.000664294 -0.00249864 -0.00249057 -0.000664294 -0.000653214 -0.00249057 -0.00248028 -0.000653214 -0.00064095 -0.00248028 -0.00246777 -0.00064095 -0.000627561 -0.00246777 -0.00245296 -0.000627561 -0.000613205 -0.00245296 -0.0024355 -0.000613205 -0.00059861 -0.0024355 -0.00241463 -0.00059861 -0.000586143 -0.00241463 -0.00239432 -0.000586143 -0.000573374 -0.00239432 -