# vtk DataFile Version 3.0
#This file was generated by the deal.II library on 2021/2/10 at 1:02:38
ASCII
DATASET UNSTRUCTURED_GRID

POINTS 14400 double
0 -0.5 0
0.0166667 -0.5 0
0 -0.483333 0
0.0166667 -0.483333 0
0.0166667 -0.5 0
0.0333333 -0.5 0
0.0166667 -0.483333 0
0.0333333 -0.483333 0
0.0333333 -0.5 0
0.05 -0.5 0
0.0333333 -0.483333 0
0.05 -0.483333 0
0.05 -0.5 0
0.0666667 -0.5 0
0.05 -0.483333 0
0.0666667 -0.483333 0
0.0666667 -0.5 0
0.0833333 -0.5 0
0.0666667 -0.483333 0
0.0833333 -0.483333 0
0.0833333 -0.5 0
0.1 -0.5 0
0.0833333 -0.483333 0
0.1 -0.483333 0
0.1 -0.5 0
0.116667 -0.5 0
0.1 -0.483333 0
0.116667 -0.483333 0
0.116667 -0.5 0
0.133333 -0.5 0
0.116667 -0.483333 0
0.133333 -0.483333 0
0.133333 -0.5 0
0.15 -0.5 0
0.133333 -0.483333 0
0.15 -0.483333 0
0.15 -0.5 0
0.166667 -0.5 0
0.15 -0.483333 0
0.166667 -0.483333 0
0.166667 -0.5 0
0.183333 -0.5 0
0.166667 -0.483333 0
0.183333 -0.483333 0
0.183333 -0.5 0
0.2 -0.5 0
0.183333 -0.483333 0
0.2 -0.483333 0
0.2 -0.5 0
0.216667 -0.5 0
0.2 -0.483333 0
0.216667 -0.483333 0
0.216667 -0.5 0
0.233333 -0.5 0
0.216667 -0.483333 0
0.233333 -0.483333 0
0.233333 -0.5 0
0.25 -0.5 0
0.233333 -0.483333 0
0.25 -0.483333 0
0.25 -0.5 0
0.266667 -0.5 0
0.25 -0.483333 0
0.266667 -0.483333 0
0.266667 -0.5 0
0.283333 -0.5 0
0.266667 -0.483333 0
0.283333 -0.483333 0
0.283333 -0.5 0
0.3 -0.5 0
0.283333 -0.483333 0
0.3 -0.483333 0
0.3 -0.5 0
0.316667 -0.5 0
0.3 -0.483333 0
0.316667 -0.483333 0
0.316667 -0.5 0
0.333333 -0.5 0
0.316667 -0.483333 0
0.333333 -0.483333 0
0.333333 -0.5 0
0.35 -0.5 0
0.333333 -0.483333 0
0.35 -0.483333 0
0.35 -0.5 0
0.366667 -0.5 0
0.35 -0.483333 0
0.366667 -0.483333 0
0.366667 -0.5 0
0.383333 -0.5 0
0.366667 -0.483333 0
0.383333 -0.483333 0
0.383333 -0.5 0
0.4 -0.5 0
0.383333 -0.483333 0
0.4 -0.483333 0
0.4 -0.5 0
0.416667 -0.5 0
0.4 -0.483333 0
0.416667 -0.483333 0
0.416667 -0.5 0
0.433333 -0.5 0
0.416667 -0.483333 0
0.433333 -0.483333 0
0.433333 -0.5 0
0.45 -0.5 0
0.433333 -0.483333 0
0.45 -0.483333 0
0.45 -0.5 0
0.466667 -0.5 0
0.45 -0.483333 0
0.466667 -0.483333 0
0.466667 -0.5 0
0.483333 -0.5 0
0.466667 -0.483333 0
0.483333 -0.483333 0
0.483333 -0.5 0
0.5 -0.5 0
0.483333 -0.483333 0
0.5 -0.483333 0
0.5 -0.5 0
0.516667 -0.5 0
0.5 -0.483333 0
0.516667 -0.483333 0
0.516667 -0.5 0
0.533333 -0.5 0
0.516667 -0.483333 0
0.533333 -0.483333 0
0.533333 -0.5 0
0.55 -0.5 0
0.533333 -0.483333 0
0.55 -0.483333 0
0.55 -0.5 0
0.566667 -0.5 0
0.55 -0.483333 0
0.566667 -0.483333 0
0.566667 -0.5 0
0.583333 -0.5 0
0.566667 -0.483333 0
0.583333 -0.483333 0
0.583333 -0.5 0
0.6 -0.5 0
0.583333 -0.483333 0
0.6 -0.483333 0
0.6 -0.5 0
0.616667 -0.5 0
0.6 -0.483333 0
0.616667 -0.483333 0
0.616667 -0.5 0
0.633333 -0.5 0
0.616667 -0.483333 0
0.633333 -0.483333 0
0.633333 -0.5 0
0.65 -0.5 0
0.633333 -0.483333 0
0.65 -0.483333 0
0.65 -0.5 0
0.666667 -0.5 0
0.65 -0.483333 0
0.666667 -0.483333 0
0.666667 -0.5 0
0.683333 -0.5 0
0.666667 -0.483333 0
0.683333 -0.483333 0
0.683333 -0.5 0
0.7 -0.5 0
0.683333 -0.483333 0
0.7 -0.483333 0
0.7 -0.5 0
0.716667 -0.5 0
0.7 -0.483333 0
0.716667 -0.483333 0
0.716667 -0.5 0
0.733333 -0.5 0
0.716667 -0.483333 0
0.733333 -0.483333 0
0.733333 -0.5 0
0.75 -0.5 0
0.733333 -0.483333 0
0.75 -0.483333 0
0.75 -0.5 0
0.766667 -0.5 0
0.75 -0.483333 0
0.766667 -0.483333 0
0.766667 -0.5 0
0.783333 -0.5 0
0.766667 -0.483333 0
0.783333 -0.483333 0
0.783333 -0.5 0
0.8 -0.5 0
0.783333 -0.483333 0
0.8 -0.483333 0
0.8 -0.5 0
0.816667 -0.5 0
0.8 -0.483333 0
0.816667 -0.483333 0
0.816667 -0.5 0
0.833333 -0.5 0
0.816667 -0.483333 0
0.833333 -0.483333 0
0.833333 -0.5 0
0.85 -0.5 0
0.833333 -0.483333 0
0.85 -0.483333 0
0.85 -0.5 0
0.866667 -0.5 0
0.85 -0.483333 0
0.866667 -0.483333 0
0.866667 -0.5 0
0.883333 -0.5 0
0.866667 -0.483333 0
0.883333 -0.483333 0
0.883333 -0.5 0
0.9 -0.5 0
0.883333 -0.483333 0
0.9 -0.483333 0
0.9 -0.5 0
0.916667 -0.5 0
0.9 -0.483333 0
0.916667 -0.483333 0
0.916667 -0.5 0
0.933333 -0.5 0
0.916667 -0.483333 0
0.933333 -0.483333 0
0.933333 -0.5 0
0.95 -0.5 0
0.933333 -0.483333 0
0.95 -0.483333 0
0.95 -0.5 0
0.966667 -0.5 0
0.95 -0.483333 0
0.966667 -0.483333 0
0.966667 -0.5 0
0.983333 -0.5 0
0.966667 -0.483333 0
0.983333 -0.483333 0
0.983333 -0.5 0
1 -0.5 0
0.983333 -0.483333 0
1 -0.483333 0
0 -0.483333 0
0.0166667 -0.483333 0
0 -0.466667 0
0.0166667 -0.466667 0
0.0166667 -0.483333 0
0.0333333 -0.483333 0
0.0166667 -0.466667 0
0.0333333 -0.466667 0
0.0333333 -0.483333 0
0.05 -0.483333 0
0.0333333 -0.466667 0
0.05 -0.466667 0
0.05 -0.483333 0
0.0666667 -0.483333 0
0.05 -0.466667 0
0.0666667 -0.466667 0
0.0666667 -0.483333 0
0.0833333 -0.483333 0
0.0666667 -0.466667 0
0.0833333 -0.466667 0
0.0833333 -0.483333 0
0.1 -0.483333 0
0.0833333 -0.466667 0
0.1 -0.466667 0
0.1 -0.483333 0
0.116667 -0.483333 0
0.1 -0.466667 0
0.116667 -0.466667 0
0.116667 -0.483333 0
0.133333 -0.483333 0
0.116667 -0.466667 0
0.133333 -0.466667 0
0.133333 -0.483333 0
0.15 -0.483333 0
0.133333 -0.466667 0
0.15 -0.466667 0
0.15 -0.483333 0
0.166667 -0.483333 0
0.15 -0.466667 0
0.166667 -0.466667 0
0.166667 -0.483333 0
0.183333 -0.483333 0
0.166667 -0.466667 0
0.183333 -0.466667 0
0.183333 -0.483333 0
0.2 -0.483333 0
0.183333 -0.466667 0
0.2 -0.466667 0
0.2 -0.483333 0
0.216667 -0.483333 0
0.2 -0.466667 0
0.216667 -0.466667 0
0.216667 -0.483333 0
0.233333 -0.483333 0
0.216667 -0.466667 0
0.233333 -0.466667 0
0.233333 -0.483333 0
0.25 -0.483333 0
0.233333 -0.466667 0
0.25 -0.466667 0
0.25 -0.483333 0
0.266667 -0.483333 0
0.25 -0.466667 0
0.266667 -0.466667 0
0.266667 -0.483333 0
0.283333 -0.483333 0
0.266667 -0.466667 0
0.283333 -0.466667 0
0.283333 -0.483333 0
0.3 -0.483333 0
0.283333 -0.466667 0
0.3 -0.466667 0
0.3 -0.483333 0
0.316667 -0.483333 0
0.3 -0.466667 0
0.316667 -0.466667 0
0.316667 -0.483333 0
0.333333 -0.483333 0
0.316667 -0.466667 0
0.333333 -0.466667 0
0.333333 -0.483333 0
0.35 -0.483333 0
0.333333 -0.466667 0
0.35 -0.466667 0
0.35 -0.483333 0
0.366667 -0.483333 0
0.35 -0.466667 0
0.366667 -0.466667 0
0.366667 -0.483333 0
0.383333 -0.483333 0
0.366667 -0.466667 0
0.383333 -0.466667 0
0.383333 -0.483333 0
0.4 -0.483333 0
0.383333 -0.466667 0
0.4 -0.466667 0
0.4 -0.483333 0
0.416667 -0.483333 0
0.4 -0.466667 0
0.416667 -0.466667 0
0.416667 -0.483333 0
0.433333 -0.483333 0
0.416667 -0.466667 0
0.433333 -0.466667 0
0.433333 -0.483333 0
0.45 -0.483333 0
0.433333 -0.466667 0
0.45 -0.466667 0
0.45 -0.483333 0
0.466667 -0.483333 0
0.45 -0.466667 0
0.466667 -0.466667 0
0.466667 -0.483333 0
0.483333 -0.483333 0
0.466667 -0.466667 0
0.483333 -0.466667 0
0.483333 -0.483333 0
0.5 -0.483333 0
0.483333 -0.466667 0
0.5 -0.466667 0
0.5 -0.483333 0
0.516667 -0.483333 0
0.5 -0.466667 0
0.516667 -0.466667 0
0.516667 -0.483333 0
0.533333 -0.483333 0
0.516667 -0.466667 0
0.533333 -0.466667 0
0.533333 -0.483333 0
0.55 -0.483333 0
0.533333 -0.466667 0
0.55 -0.466667 0
0.55 -0.483333 0
0.566667 -0.483333 0
0.55 -0.466667 0
0.566667 -0.466667 0
0.566667 -0.483333 0
0.583333 -0.483333 0
0.566667 -0.466667 0
0.583333 -0.466667 0
0.583333 -0.483333 0
0.6 -0.483333 0
0.583333 -0.466667 0
0.6 -0.466667 0
0.6 -0.483333 0
0.616667 -0.483333 0
0.6 -0.466667 0
0.616667 -0.466667 0
0.616667 -0.483333 0
0.633333 -0.483333 0
0.616667 -0.466667 0
0.633333 -0.466667 0
0.633333 -0.483333 0
0.65 -0.483333 0
0.633333 -0.466667 0
0.65 -0.466667 0
0.65 -0.483333 0
0.666667 -0.483333 0
0.65 -0.466667 0
0.666667 -0.466667 0
0.666667 -0.483333 0
0.683333 -0.483333 0
0.666667 -0.466667 0
0.683333 -0.466667 0
0.683333 -0.483333 0
0.7 -0.483333 0
0.683333 -0.466667 0
0.7 -0.466667 0
0.7 -0.483333 0
0.716667 -0.483333 0
0.7 -0.466667 0
0.716667 -0.466667 0
0.716667 -0.483333 0
0.733333 -0.483333 0
0.716667 -0.466667 0
0.733333 -0.466667 0
0.733333 -0.483333 0
0.75 -0.483333 0
0.733333 -0.466667 0
0.75 -0.466667 0
0.75 -0.483333 0
0.766667 -0.483333 0
0.75 -0.466667 0
0.766667 -0.466667 0
0.766667 -0.483333 0
0.783333 -0.483333 0
0.766667 -0.466667 0
0.783333 -0.466667 0
0.783333 -0.483333 0
0.8 -0.483333 0
0.783333 -0.466667 0
0.8 -0.466667 0
0.8 -0.483333 0
0.816667 -0.483333 0
0.8 -0.466667 0
0.816667 -0.466667 0
0.816667 -0.483333 0
0.833333 -0.483333 0
0.816667 -0.466667 0
0.833333 -0.466667 0
0.833333 -0.483333 0
0.85 -0.483333 0
0.833333 -0.466667 0
0.85 -0.466667 0
0.85 -0.483333 0
0.866667 -0.483333 0
0.85 -0.466667 0
0.866667 -0.466667 0
0.866667 -0.483333 0
0.883333 -0.483333 0
0.866667 -0.466667 0
0.883333 -0.466667 0
0.883333 -0.483333 0
0.9 -0.483333 0
0.883333 -0.466667 0
0.9 -0.466667 0
0.9 -0.483333 0
0.916667 -0.483333 0
0.9 -0.466667 0
0.916667 -0.466667 0
0.916667 -0.483333 0
0.933333 -0.483333 0
0.916667 -0.466667 0
0.933333 -0.466667 0
0.933333 -0.483333 0
0.95 -0.483333 0
0.933333 -0.466667 0
0.95 -0.466667 0
0.95 -0.483333 0
0.966667 -0.483333 0
0.95 -0.466667 0
0.966667 -0.466667 0
0.966667 -0.483333 0
0.983333 -0.483333 0
0.966667 -0.466667 0
0.983333 -0.466667 0
0.983333 -0.483333 0
1 -0.483333 0
0.983333 -0.466667 0
1 -0.466667 0
0 -0.466667 0
0.0166667 -0.466667 0
0 -0.45 0
0.0166667 -0.45 0
0.0166667 -0.466667 0
0.0333333 -0.466667 0
0.0166667 -0.45 0
0.0333333 -0.45 0
0.0333333 -0.466667 0
0.05 -0.466667 0
0.0333333 -0.45 0
0.05 -0.45 0
0.05 -0.466667 0
0.0666667 -0.466667 0
0.05 -0.45 0
0.0666667 -0.45 0
0.0666667 -0.466667 0
0.0833333 -0.466667 0
0.0666667 -0.45 0
0.0833333 -0.45 0
0.0833333 -0.466667 0
0.1 -0.466667 0
0.0833333 -0.45 0
0.1 -0.45 0
0.1 -0.466667 0
0.116667 -0.466667 0
0.1 -0.45 0
0.116667 -0.45 0
0.116667 -0.466667 0
0.133333 -0.466667 0
0.116667 -0.45 0
0.133333 -0.45 0
0.133333 -0.466667 0
0.15 -0.466667 0
0.133333 -0.45 0
0.15 -0.45 0
0.15 -0.466667 0
0.166667 -0.466667 0
0.15 -0.45 0
0.166667 -0.45 0
0.166667 -0.466667 0
0.183333 -0.466667 0
0.166667 -0.45 0
0.183333 -0.45 0
0.183333 -0.466667 0
0.2 -0.466667 0
0.183333 -0.45 0
0.2 -0.45 0
0.2 -0.466667 0
0.216667 -0.466667 0
0.2 -0.45 0
0.216667 -0.45 0
0.216667 -0.466667 0
0.233333 -0.466667 0
0.216667 -0.45 0
0.233333 -0.45 0
0.233333 -0.466667 0
0.25 -0.466667 0
0.233333 -0.45 0
0.25 -0.45 0
[...]
POINT_DATA 14400
SCALARS x1_displacement double 1
LOOKUP_TABLE default
0 -0.00015407 0 -2.52325e-05 -0.00015407 -0.000207611 -2.52325e-05 -4.25602e-05 -0.000207611 -0.000190238 -4.25602e-05 -2.58183e-05 -0.000190238 -0.000123949 -2.58183e-05 2.37894e-05 -0.000123949 -1.99541e-05 2.37894e-05 0.000102288 -1.99541e-05 0.000114051 0.000102288 0.000205675 0.000114051 0.000272759 0.000205675 0.000330589 0.000272759 0.0004524 0.000330589 0.000474355 0.0004524 0.000650317 0.000474355 0.000634889 0.000650317 0.000864694 0.000634889 0.000810586 0.000864694 0.00109442 0.000810586 0.00100027 0.00109442 0.00133903 0.00100027 0.00120316 0.00133903 0.00159872 0.00120316 0.0014189 0.00159872 0.00187423 0.0014189 0.0016475 0.00187423 0.00216669 0.0016475 0.00188925 0.00216669 0.00247718 0.00188925 0.00214449 0.00247718 0.00280624 0.00214449 0.00241324 0.00280624 0.00315336 0.00241324 0.00269487 0.00315336 0.00351668 0.00269487 0.00298789 0.00351668 0.00389298 0.00298789 0.00328993 0.00389298 0.00427798 0.00328993 0.00359795 0.00427798 0.00466683 0.00359795 0.00390854 0.00466683 0.00505457 0.00390854 0.00421825 0.00505457 0.00543656 0.00421825 0.00452378 0.00543656 0.00580873 0.00452378 0.00482224 0.00580873 0.00616769 0.00482224 0.00511112 0.00616769 0.0065107 0.00511112 0.00538835 0.0065107 0.00683558 0.00538835 0.00565221 0.00683558 0.00714063 0.00565221 0.00590131 0.00714063 0.00742454 0.00590131 0.00613454 0.00742454 0.00768637 0.00613454 0.00635107 0.00768637 0.00792556 0.00635107 0.00655033 0.00792556 0.00814187 0.00655033 0.00673206 0.00814187 0.00833544 0.00673206 0.00689628 0.00833544 0.00850681 0.00689628 0.00704332 0.00850681 0.00865694 0.00704332 0.00717385 0.00865694 0.00878728 0.00717385 0.00728888 0.00878728 0.00889989 0.00728888 0.00738986 0.00889989 0.0089976 0.00738986 0.00747868 0.0089976 0.00908421 0.00747868 0.0075578 0.00908421 0.00916477 0.0075578 0.00763026 0.00916477 0.00924591 0.00763026 0.00769974 0.00924591 0.00933593 0.00769974 0.00777055 0.00933593 0.00944455 0.00777055 0.00784733 0.00944455 0.00958162 0.00784733 0.00793456 0.00958162 0.00975439 0.00793456 0.00803531 0.00975439 0.00996397 0.00803531 0.00814883 0.00996397 0.0102036 0.00814883 0.00826842 0.0102036 0.0104605 0.00826842 0.00838342 0.0104605 0.0107194 0.00838342 0.00848443 0.0107194 0.0109618 0.00848443 0.00856137 0.0109618 0.0111701 0.00856137 0.00859924 0.0111701 0.0113327 0.00859924 0.00859023 0.0113327 0.011436 0.00859023 0.00853768 0.011436 0.0114532 0.00853768 0.00844119 0.0114532 0.0113684 0.00844119 0.00830261 0.0113684 0.0112158 0.00830261 0.00815382 0.0112158 0.0110738 0.00815382 0.00804145 0.0110738 0.0110018 0.00804145 0.00799184 0.0110018 0.0109883 0.00799184 0.00799275 0 -2.52325e-05 0 2.47421e-06 -2.52325e-05 -4.25602e-05 2.47421e-06 2.12544e-05 -4.25602e-05 -2.58183e-05 2.12544e-05 5.06605e-05 -2.58183e-05 2.37894e-05 5.06605e-05 9.6874e-05 2.37894e-05 0.000102288 9.6874e-05 0.000161053 0.000102288 0.000205675 0.000161053 0.000242728 0.000205675 0.000330589 0.000242728 0.000340807 0.000330589 0.000474355 0.000340807 0.000454068 0.000474355 0.000634889 0.000454068 0.000581288 0.000634889 0.000810586 0.000581288 0.000721263 0.000810586 0.00100027 0.000721263 0.00087283 0.00100027 0.00120316 0.00087283 0.00103494 0.00120316 0.0014189 0.00103494 0.00120679 0.0014189 0.0016475 0.00120679 0.00138797 0.0016475 0.00188925 0.00138797 0.00157852 0.00188925 0.00214449 0.00157852 0.00177876 0.00214449 0.00241324 0.00177876 0.00198895 0.00241324 0.00269487 0.00198895 0.00220881 0.00269487 0.00298789 0.00220881 0.00243724 0.00298789 0.00328993 0.00243724 0.0026723 0.00328993 0.00359795 0.0026723 0.00291153 0.00359795 0.00390854 0.00291153 0.00315227 0.00390854 0.00421825 0.00315227 0.00339195 0.00421825 0.00452378 0.00339195 0.00362826 0.00452378 0.00482224 0.00362826 0.00385923 0.00482224 0.00511112 0.00385923 0.00408328 0.00511112 0.00538835 0.00408328 0.00429906 0.00538835 0.00565221 0.00429906 0.00450544 0.00565221 0.00590131 0.00450544 0.00470139 0.00590131 0.00613454 0.00470139 0.00488602 0.00613454 0.00635107 0.00488602 0.00505862 0.00635107 0.00655033 0.00505862 0.00521863 0.00655033 0.00673206 0.00521863 0.00536571 0.00673206 0.00689628 0.00536571 0.00549974 0.00689628 0.00704332 0.00549974 0.00562077 0.00704332 0.00717385 0.00562077 0.00572908 0.00717385 0.00728888 0.00572908 0.00582513 0.00728888 0.00738986 0.00582513 0.00590956 0.00738986 0.00747868 0.00590956 0.00598319 0.00747868 0.0075578 0.00598319 0.00604696 0.0075578 0.00763026 0.00604696 0.00610188 0.00763026 0.00769974 0.00610188 0.00614902 0.00769974 0.00777055 0.00614902 0.00618961 0.00777055 0.00784733 0.00618961 0.00622516 0.00784733 0.00793456 0.00622516 0.00625774 0.00793456 0.00803531 0.00625774 0.00628979 0.00803531 0.00814883 0.00628979 0.00632181 0.00814883 0.00826842 0.00632181 0.00634569 0.00826842 0.00838342 0.00634569 0.00634479 0.00838342 0.00848443 0.00634479 0.00631126 0.00848443 0.00856137 0.00631126 0.00624808 0.00856137 0.00859924 0.00624808 0.00614412 0.00859924 0.00859023 0.00614412 0.00598289 0.00859023 0.00853768 0.00598289 0.00575715 0.00853768 0.00844119 0.00575715 0.00548253 0.00844119 0.00830261 0.00548253 0.0052112 0.00830261 0.00815382 0.0052112 0.00501011 0.00815382 0.00804145 0.00501011 0.00492174 0.00804145 0.00799184 0.00492174 0.00491608 0.00799184 0.00799275 0.00491608 0.00496151 0 2.47421e-06 0 1.00895e-05 2.47421e-06 2.12544e-05 1.00895e-05 3.65443e-05 2.12544e-05 5.06605e-05 3.65443e-05 7.23205e-05 5.06605e-05 9.6874e-05 7.23205e-05 0.000116263 9.6874e-05 0.000161053 0.000116263 0.000169946 0.000161053 0.000242728 0.000169946 0.0002343 0.000242728 0.000340807 0.0002343 0.000309756 0.000340807 0.000454068 0.000309756 0.000396332 0.000454068 0.000581288 0.000396332 0.000493653 0.000581288 0.000721263 0.000493653 0.000600934 0.000721263 0.00087283 0.000600934 0.000717018 0.00087283 0.00103494 0.000717018 0.000840525 0.00103494 0.00120679 0.000840525 0.000970163 0.00120679 0.00138797 0.000970163 0.00110512 0.00138797 0.00157852 0.00110512 0.00124537 0.00157852 0.00177876 0.00124537 0.00139167 0.00177876 0.00198895 0.00139167 0.00154501 0.00198895 0.00220881 0.00154501 0.00170585 0.00220881 0.00243724 0.00170585 0.00187349 0.00243724 0.0026723 0.00187349 0.00204616 0.0026723 0.00291153 0.00204616 0.00222161 0.00291153 0.00315227 0.00222161 0.00239761 0.00315227 0.00339195 0.00239761 0.0025722 0.00339195 0.00362826 0.0025722 0.00274382 0.00362826 0.00385923 0.00274382 0.00291138 0.00385923 0.00408328 0.00291138 0.00307418 0.00408328 0.00429906 0.00307418 0.00323168 0.00429906 0.00450544 0.00323168 0.00338331 0.00450544 0.00470139 0.00338331 0.00352842 0.00470139 0.00488602 0.00352842 0.0036663 0.00488602 0.00505862 0.0036663 0.00379629 0.00505862 0.00521863 0.00379629 0.00391787 0.00521863 0.00536571 0.00391787 0.00403058 0.00536571 0.00549974 0.00403058 0.00413412 0.00549974 0.00562077 0.00413412 0.00422827 0.00562077 0.00572908 0.00422827 0.00431289 0.00572908 0.00582513 0.00431289 0.00438787 0.00582513 0.00590956 0.00438787 0.00445313 0.00590956 0.00598319 0.00445313 0.00450849 0.00598319 0.00604696 0.00450849 0.00455362 0.00604696 0.00610188 0.00455362 0.00458797 0.00610188 0.00614902 0.00458797 0.00461065 0.00614902 0.00618961 0.00461065 0.0046207 0.00618961 0.00622516 0.0046207 0.00461756 0.00622516 0.00625774 0.00461756 0.00460159 0.00625774 0.00628979 0.00460159 0.00457425 0.00628979 0.00632181 0.00457425 0.00453705 0.00632181 0.00634569 0.00453705 0.00448331 0.00634569 0.00634479 0.00448331 0.00438941 0.00634479 0.00631126 0.00438941 0.00423726 0.00631126 0.00624808 0.00423726 0.00401903 0.00624808 0.00614412 0.00401903 0.00375469 0.00614412 0.00598289 0.00375469 0.00347199 0.00598289 0.00575715 0.00347199 0.00302985 0.00575715 0.00548253 0.00302985 0.00244996 0.00548253 0.0052112 0.00244996 0.00198388 0.0052112 0.00501011 0.00198388 0.00182885 0.00501011 0.00492174 0.00182885 0.00183078 0.00492174 0.00491608 0.00183078 0.0018852 0.00491608 0.00496151 0.0018852 0.00198026 0 1.00895e-05 0 7.03541e-06 1.00895e-05 3.65443e-05 7.03541e-06 3.04419e-05 3.65443e-05 7.23205e-05 3.04419e-05 6.25876e-05 7.23205e-05 0.000116263 6.25876e-05 0.000100035 0.000116263 0.000169946 0.000100035 0.000142236 0.000169946 0.0002343 0.000142236 0.000190052 0.0002343 0.000309756 0.000190052 0.000244594 0.000309756 0.000396332 0.000244594 0.00030675 0.000396332 0.000493653 0.00030675 0.00037686 0.000493653 0.000600934 0.00037686 0.000454496 0.000600934 0.000717018 0.000454496 0.000538413 0.000717018 0.000840525 0.000538413 0.00062671 0.000840525 0.000970163 0.00062671 0.000717296 0.000970163 0.00110512 0.000717296 0.000808613 0.00110512 0.00124537 0.000808613 0.000900417 0.00124537 0.00139167 0.000900417 0.000994077 0.00139167 0.00154501 0.000994077 0.00109186 0.00154501 0.00170585 0.00109186 0.00119539 0.00170585 0.00187349 0.00119539 0.00130438 0.00187349 0.00204616 0.00130438 0.00141693 0.00204616 0.00222161 0.00141693 0.00153081 0.00222161 0.00239761 0.00153081 0.00164425 0.00239761 0.0025722 0.00164425 0.00175591 0.0025722 0.00274382 0.00175591 0.00186492 0.00274382 0.00291138 0.00186492 0.00197104 0.00291138 0.00307418 0.00197104 0.00207453 0.00307418 0.00323168 0.00207453 0.00217574 0.00323168 0.00338331 0.00217574 0.00227463 0.00338331 0.00352842 0.00227463 0.00237075 0.00352842 0.0036663 0.00237075 0.00246349 0.0036663 0.00379629 0.00246349 0.00255221 0.00379629 0.00391787 0.00255221 0.00263634 0.00391787 0.00403058 0.00263634 0.00271533 0.00403058 0.00413412 0.00271533 0.0027887 0.00413412 0.00422827 0.0027887 0.00285594 0.00422827 0.00431289 0.00285594 0.00291656 0.00431289 0.00438787 0.00291656 0.00296998 0.00438787 0.00445313 0.00296998 0.00301553 0.00445313 0.00450849 0.00301553 0.00305235 0.00450849 0.00455362 0.00305235 0.00307935 0.00455362 0.00458797 0.00307935 0.00309508 0.00458797 0.00461065 0.00309508 0.00309774 0.00461065 0.0046207 0.00309774 0.00308513 0.0046207 0.00461756 0.00308513 0.00305554 0.00461756 0.00460159 0.00305554 0.00300889 0.00460159 0.00457425 0.00300889 0.00294521 0.00457425 0.00453705 0.00294521 0.00286014 0.00453705 0.00448331 0.00286014 0.00271957 0.00448331 0.00438941 0.00271957 0.00251116 0.00438941 0.00423726 0.00251116 0.00226579 0.00423726 0.00401903 0.00226579 0.00187068 0.00401903 0.00375469 0.00187068 0.00136625 0.00375469 0.00347199 0.00136625 0.000894829 0.00347199 0.00302985 0.000894829 5.60733e-05 0.00302985 0.00244996 5.60733e-05 -0.000856184 0.00244996 0.00198388 -0.000856184 -0.00110227 0.00198388 0.00182885 -0.00110227 -0.00112742 0.00182885 0.00183078 -0.00112742 -0.00106823 0.00183078 0.0018852 -0.00106823 -0.000981178 0.0018852 0.00198026 -0.000981178 -0.000851604 0 7.03541e-06 0 -1.64166e-06 7.03541e-06 3.04419e-05 -1.64166e-06 1.24608e-05 3.04419e-05 6.25876e-05 1.24608e-05 3.48773e-05 6.25876e-05 0.000100035 3.48773e-05 6.08144e-05 0.000100035 0.000142236 6.08144e-05 8.85053e-05 0.000142236 0.000190052 8.85053e-05 0.000118352 0.000190052 0.000244594 0.000118352 0.000151837 0.000244594 0.00030675 0.000151837 0.000190551 0.00030675 0.00037686 0.000190551 0.000235488 0.00037686 0.000454496 0.000235488 0.00028656 0.000454496 0.000538413 0.00028656 0.000342357 0.000538413 0.00062671 0.000342357 0.000400215 0.00062671 0.000717296 0.000400215 0.000456717 0.000717296 0.000808613 0.000456717 0.000508765 0.000808613 0.000900417 0.000508765 0.000555118 0.000900417 0.000994077 0.000555118 0.000597576 0.000994077 0.00109186 0.000597576 0.000640385 0.00109186 0.00119539 0.000640385 0.000687117 0.00119539 0.00130438 0.000687117 0.000737888 0.00130438 0.00141693 0.000737888 0.000790027 0.00141693 0.00153081 0.000790027 0.000841437 0.00153081 0.00164425 0.000841437 0.000891451 0.00164425 0.00175591 0.000891451 0.000939697 0.00175591 0.00186492 0.000939697 0.000985826 0.00186492 0.00197104 0.000985826 0.0010304 0.00197104 0.00207453 0.0010304 0.00107499 0.00207453 0.00217574 0.00107499 0.00112093 0.00217574 0.00227463 0.00112093 0.0011685 0.00227463 0.00237075 0.0011685 0.00121717 0.00237075 0.00246349 0.00121717 0.00126623 0.00246349 0.00255221 0.00126623 0.00131501 0.00255221 0.00263634 0.00131501 0.0013629 0.00263634 0.00271533 0.0013629 0.00140923 0.00271533 0.0027887 0.00140923 0.00145332 0.0027887 0.00285594 0.00145332 0.00149444 0.00285594 0.00291656 0.00149444 0.0015318 0.00291656 0.00296998 0.0015318 0.00156449 0.00296998 0.00301553 0.00156449 0.00159144 0.00301553 0.00305235 0.00159144 0.00161146 0.00305235 0.00307935 0.00161146 0.00162323 0.00307935 0.00309508 0.00162323 0.0016253 0.00309508 0.00309774 0.0016253 0.00161615 0.00309774 0.00308513 0.00161615 0.00159415 0.00308513 0.00305554 0.00159415 0.00155768 0.00305554 0.00300889 0.00155768 0.00150899 0.00300889 0.00294521 0.00150899 0.00145387 0.00294521 0.00286014 0.00145387 0.0013559 0.00286014 0.00271957 0.0013559 0.00107092 0.00271957 0.00251116 0.00107092 0.000676517 0.00251116 0.00226579 0.000676517 0.000326681 0.00226579 0.00187068 0.000326681 -0.000255411 0.00187068 0.00136625 -0.000255411 -0.00110341 0.00136625 0.000894829 -0.00110341 -0.0021783 0.000894829 5.60733e-05 -0.0021783 -0.0032744 5.60733e-05 -0.000856184 -0.0032744 -0.00362617 -0.000856184 -0.00110227 -0.00362617 -0.00370811 -0.00110227 -0.00112742 -0.00370811 -0.0037282 -0.00112742 -0.00106823 -0.0037282 -0.00369715 -0.00106823 -0.000981178 -0.00369715 -0.00361617 -0.000981178 -0.000851604 -0.00361617 -0.00347533 0 -1.64166e-06 0 -1.39271e-05 -1.64166e-06 1.24608e-05 -1.39271e-05 -1.25724e-05 1.24608e-05 3.48773e-05 -1.25724e-05 -3.87862e-06 3.48773e-05 6.08144e-05 -3.87862e-06 6.45305e-06 6.08144e-05 8.85053e-05 6.45305e-06 1.60448e-05 8.85053e-05 0.000118352 1.60448e-05 2.53462e-05 0.000118352 0.000151837 2.53462e-05 3.64183e-05 0.000151837 0.000190551 3.64183e-05 5.1689e-05 0.000190551 0.000235488 5.1689e-05 7.29338e-05 0.000235488 0.00028656 7.29338e-05 0.000100528 0.00028656 0.000342357 0.000100528 0.000132971 0.000342357 0.000400215 0.000132971 0.00016674 0.000400215 0.000456717 0.00016674 0.000196596 0.000456717 0.000508765 0.000196596 0.000216693 0.000508765 0.000555118 0.000216693 0.000222994 0.000555118 0.000597576 0.000222994 0.000216465 0.000597576 0.000640385 0.000216465 0.000203916 0.000640385 0.000687117 0.000203916 0.000192963 0.000687117 0.000737888 0.000192963 0.000183654 0.000737888 0.000790027 0.000183654 0.000171439 0.000790027 0.000841437 0.000171439 0.000155046 0.000841437 0.000891451 0.000155046 0.000137247 0.000891451 0.000939697 0.000137247 0.000119088 0.000939697 0.000985826 0.000119088 9.97521e-05 0.000985826 0.0010304 9.97521e-05 8.06245e-05 0.0010304 0.00107499 8.06245e-05 6.53862e-05 0.00107499 0.00112093 6.53862e-05 5.65776e-05 0.00112093 0.0011685 5.65776e-05 5.40908e-05 0.0011685 0.00121717 5.40908e-05 5.66308e-05 0.00121717 0.00126623 5.66308e-05 6.32979e-05 0.00126623 0.00131501 6.32979e-05 7.35394e-05 0.00131501 0.0013629 7.35394e-05 8.66688e-05 0.0013629 0.00140923 8.66688e-05 0.000101826 0.00140923 0.00145332 0.000101826 0.000118113 0.00145332 0.00149444 0.000118113 0.000134616 0.00149444 0.0015318 0.000134616 0.000150318 0.0015318 0.00156449 0.000150318 0.000164058 0.00156449 0.00159144 0.000164058 0.000174568 0.00159144 0.00161146 0.000174568 0.000180574 0.00161146 0.00162323 0.000180574 0.000180947 0.00162323 0.0016253 0.000180947 0.000174888 0.0016253 0.00161615 0.000174888 0.000162215 0.00161615 0.00159415 0.000162215 0.000143981 0.00159415 0.00155768 0.000143981 0.000122624 0.00155768 0.00150899 0.000122624 0.000102719 0.00150899 0.00145387 0.000102719 8.03204e-05 0.00145387 0.0013559 8.03204e-05 -8.92715e-06 0.0013559 0.00107092 -8.92715e-06 -0.000418678 0.00107092 0.000676517 -0.000418678 -0.00111934 0.000676517 0.000326681 -0.00111934 -0.00196545 0.000326681 -0.000255411 -0.00196545 -0.00290982 -0.000255411 -0.00110341 -0.00290982 -0.00393124 -0.00110341 -0.0021783 -0.00393124 -0.00508608 -0.0021783 -0.0032744 -0.00508608 -0.00586748 -0.0032744 -0.00362617 -0.00586748 -0.00604456 -0.00362617 -0.00370811 -0.00604456 -0.00609447 -0.00370811 -0.0037282 -0.00609447 -0.00611158 -0.0037282 -0.00369715 -0.00611158 -0.00609321 -0.00369715 -0.00361617 -0.00609321 -0.00602258 -0.00361617 -0.00347533 -0.00602258 -0.00588464 0 -1.39271e-05 0 -2.87747e-05 -1.39271e-05 -1.25724e-05 -2.87747e-05 -4.21646e-05 -1.25724e-05 -3.87862e-06 -4.21646e-05 -4.98865e-05 -3.87862e-06 6.45305e-06 -4.98865e-05 -5.86793e-05 6.45305e-06 1.60448e-05 -5.86793e-05 -7.08818e-05 1.60448e-05 2.53462e-05 -7.08818e-05 -8.52851e-05 2.53462e-05 3.64183e-05 -8.52851e-05 -9.87383e-05 3.64183e-05 5.1689e-05 -9.87383e-05 -0.000107646 5.1689e-05 7.29338e-05 -0.000107646 -0.00010917 7.29338e-05 0.000100528 -0.00010917 -0.000102172 0.000100528 0.000132971 -0.000102172 -8.79167e-05 0.000132971 0.00016674 -8.79167e-05 -7.04923e-05 0.00016674 0.000196596 -7.04923e-05 -5.6893e-05 0.000196596 0.000216693 -5.6893e-05 -5.65501e-05 0.000216693 0.000222994 -5.65501e-05 -7.92041e-05 0.000222994 0.000216465 -7.92041e-05 -0.000128849 0.000216465 0.000203916 -0.000128849 -0.000197304 0.000203916 0.000192963 -0.000197304 -0.000270211 0.000192963 0.000183654 -0.000270211 -0.000344997 0.000183654 0.000171439 -0.000344997 -0.000432903 0.000171439 0.000155046 -0.000432903 -0.000529086 0.000155046 0.000137247 -0.000529086 -0.000622498 0.000137247 0.000119088 -0.000622498 -0.000712524 0.000119088 9.97521e-05 -0.000712524 -0.000802406 9.97521e-05 8.06245e-05 -0.000802406 -0.000889474 8.06245e-05 6.53862e-05 -0.000889474 -0.000965953 6.53862e-05 5.65776e-05 -0.000965953 -0.00102831 5.65776e-05 5.40908e-05 -0.00102831 -0.00107942 5.40908e-05 5.66308e-05 -0.00107942 -0.0011221 5.66308e-05 6.32979e-05 -0.0011221 -0.00115677 6.32979e-05 7.35394e-05 -0.00115677 -0.00118347 7.35394e-05 8.66688e-05 -0.00118347 -0.00120318 8.66688e-05 0.000101826 -0.00120318 -0.00121724 0.000101826 0.000118113 -0.00121724 -0.00122675 0.000118113 0.000134616 -0.00122675 -0.00123275 0.000134616 0.000150318 -0.00123275 -0.00123642 0.000150318 0.000164058 -0.00123642 -0.00123916 0.000164058 0.000174568 -0.00123916 -0.00124239 0.000174568 0.000180574 -0.00124239 -0.00124739 0.000180574 0.000180947 -0.00124739 -0.00125497 0.000180947 0.000174888 -0.00125497 -0.00126507 0.000174888 0.000162215 -0.00126507 -0.00127638 0.000162215 0.000143981 -0.00127638 -0.00128535 0.000143981 0.000122624 -0.00128535 -0.0012832 0.000122624 0.000102719 -0.0012832 -0.00126169 0.000102719 8.03204e-05 -0.00126169 -0.00126877 8.03204e-05 -8.92715e-06 -0.00126877 -0.00166041 -8.92715e-06 -0.000418678 -0.00166041 -0.00242008 -0.000418678 -0.00111934 -0.00242008 -0.00329448 -0.00111934 -0.00196545 -0.00329448 -0.00429652 -0.00196545 -0.00290982 -0.00429652 -0.00540378 -0.00290982 -0.00393124 -0.00540378 -0.00663352 -0.00393124 -0.00508608 -0.00663352 -0.00781084 -0.00508608 -0.00586748 -0.00781084 -0.00814291 -0.00586748 -0.00604456 -0.00814291 -0.00824068 -0.00604456 -0.00609447 -0.00824068 -0.00828989 -0.00609447 -0.00611158 -0.00828989 -0.00831226 -0.00611158 -0.00609321 -0.00831226 -0.00829788 -0.00609321 -0.00602258 -0.00829788 -0.00823293 -0.00602258 -0.00588464 -0.00823293 -0.00810343 0 -2.87747e-05 0 -4.57974e-05 -2.87747e-05 -4.21646e-05 -4.57974e-05 -7.51295e-05 -4.21646e-05 -4.98865e-05 -7.51295e-05 -0.000101554 -4.98865e-05 -5.86793e-05 -0.000101554 -0.000132964 -5.86793e-05 -7.08818e-05 -0.000132964 -0.00017078 -7.08818e-05 -8.52851e-05 -0.00017078 -0.000212254 -8.52851e-05 -9.87383e-05 -0.000212254 -0.000252696 -9.87383e-05 -0.000107646 -0.000252696 -0.000287041 -0.000107646 -0.00010917 -0.000287041 -0.000311068 -0.00010917 -0.000102172 -0.000311068 -0.000322458 -0.000102172 -8.79167e-05 -0.000322458 -0.00032168 -8.79167e-05 -7.04923e-05 -0.00032168 -0.000312621 -7.04923e-05 -5.6893e-05 -0.000312621 -0.000302958 -5.6893e-05 -5.65501e-05 -0.000302958 -0.000304443 -5.65501e-05 -7.92041e-05 -0.000304443 -0.000333322 -7.92041e-05 -0.000128849 -0.000333322 -0.000406486 -0.000128849 -0.000197304 -0.000406486 -0.000524472 -0.000197304 -0.00027