# vtk DataFile Version 3.0
#This file was generated by the deal.II library on 2021/2/10 at 1:08:16
ASCII
DATASET UNSTRUCTURED_GRID

POINTS 14400 double
0 -0.5 0
0.0166667 -0.5 0
0 -0.483333 0
0.0166667 -0.483333 0
0.0166667 -0.5 0
0.0333333 -0.5 0
0.0166667 -0.483333 0
0.0333333 -0.483333 0
0.0333333 -0.5 0
0.05 -0.5 0
0.0333333 -0.483333 0
0.05 -0.483333 0
0.05 -0.5 0
0.0666667 -0.5 0
0.05 -0.483333 0
0.0666667 -0.483333 0
0.0666667 -0.5 0
0.0833333 -0.5 0
0.0666667 -0.483333 0
0.0833333 -0.483333 0
0.0833333 -0.5 0
0.1 -0.5 0
0.0833333 -0.483333 0
0.1 -0.483333 0
0.1 -0.5 0
0.116667 -0.5 0
0.1 -0.483333 0
0.116667 -0.483333 0
0.116667 -0.5 0
0.133333 -0.5 0
0.116667 -0.483333 0
0.133333 -0.483333 0
0.133333 -0.5 0
0.15 -0.5 0
0.133333 -0.483333 0
0.15 -0.483333 0
0.15 -0.5 0
0.166667 -0.5 0
0.15 -0.483333 0
0.166667 -0.483333 0
0.166667 -0.5 0
0.183333 -0.5 0
0.166667 -0.483333 0
0.183333 -0.483333 0
0.183333 -0.5 0
0.2 -0.5 0
0.183333 -0.483333 0
0.2 -0.483333 0
0.2 -0.5 0
0.216667 -0.5 0
0.2 -0.483333 0
0.216667 -0.483333 0
0.216667 -0.5 0
0.233333 -0.5 0
0.216667 -0.483333 0
0.233333 -0.483333 0
0.233333 -0.5 0
0.25 -0.5 0
0.233333 -0.483333 0
0.25 -0.483333 0
0.25 -0.5 0
0.266667 -0.5 0
0.25 -0.483333 0
0.266667 -0.483333 0
0.266667 -0.5 0
0.283333 -0.5 0
0.266667 -0.483333 0
0.283333 -0.483333 0
0.283333 -0.5 0
0.3 -0.5 0
0.283333 -0.483333 0
0.3 -0.483333 0
0.3 -0.5 0
0.316667 -0.5 0
0.3 -0.483333 0
0.316667 -0.483333 0
0.316667 -0.5 0
0.333333 -0.5 0
0.316667 -0.483333 0
0.333333 -0.483333 0
0.333333 -0.5 0
0.35 -0.5 0
0.333333 -0.483333 0
0.35 -0.483333 0
0.35 -0.5 0
0.366667 -0.5 0
0.35 -0.483333 0
0.366667 -0.483333 0
0.366667 -0.5 0
0.383333 -0.5 0
0.366667 -0.483333 0
0.383333 -0.483333 0
0.383333 -0.5 0
0.4 -0.5 0
0.383333 -0.483333 0
0.4 -0.483333 0
0.4 -0.5 0
0.416667 -0.5 0
0.4 -0.483333 0
0.416667 -0.483333 0
0.416667 -0.5 0
0.433333 -0.5 0
0.416667 -0.483333 0
0.433333 -0.483333 0
0.433333 -0.5 0
0.45 -0.5 0
0.433333 -0.483333 0
0.45 -0.483333 0
0.45 -0.5 0
0.466667 -0.5 0
0.45 -0.483333 0
0.466667 -0.483333 0
0.466667 -0.5 0
0.483333 -0.5 0
0.466667 -0.483333 0
0.483333 -0.483333 0
0.483333 -0.5 0
0.5 -0.5 0
0.483333 -0.483333 0
0.5 -0.483333 0
0.5 -0.5 0
0.516667 -0.5 0
0.5 -0.483333 0
0.516667 -0.483333 0
0.516667 -0.5 0
0.533333 -0.5 0
0.516667 -0.483333 0
0.533333 -0.483333 0
0.533333 -0.5 0
0.55 -0.5 0
0.533333 -0.483333 0
0.55 -0.483333 0
0.55 -0.5 0
0.566667 -0.5 0
0.55 -0.483333 0
0.566667 -0.483333 0
0.566667 -0.5 0
0.583333 -0.5 0
0.566667 -0.483333 0
0.583333 -0.483333 0
0.583333 -0.5 0
0.6 -0.5 0
0.583333 -0.483333 0
0.6 -0.483333 0
0.6 -0.5 0
0.616667 -0.5 0
0.6 -0.483333 0
0.616667 -0.483333 0
0.616667 -0.5 0
0.633333 -0.5 0
0.616667 -0.483333 0
0.633333 -0.483333 0
0.633333 -0.5 0
0.65 -0.5 0
0.633333 -0.483333 0
0.65 -0.483333 0
0.65 -0.5 0
0.666667 -0.5 0
0.65 -0.483333 0
0.666667 -0.483333 0
0.666667 -0.5 0
0.683333 -0.5 0
0.666667 -0.483333 0
0.683333 -0.483333 0
0.683333 -0.5 0
0.7 -0.5 0
0.683333 -0.483333 0
0.7 -0.483333 0
0.7 -0.5 0
0.716667 -0.5 0
0.7 -0.483333 0
0.716667 -0.483333 0
0.716667 -0.5 0
0.733333 -0.5 0
0.716667 -0.483333 0
0.733333 -0.483333 0
0.733333 -0.5 0
0.75 -0.5 0
0.733333 -0.483333 0
0.75 -0.483333 0
0.75 -0.5 0
0.766667 -0.5 0
0.75 -0.483333 0
0.766667 -0.483333 0
0.766667 -0.5 0
0.783333 -0.5 0
0.766667 -0.483333 0
0.783333 -0.483333 0
0.783333 -0.5 0
0.8 -0.5 0
0.783333 -0.483333 0
0.8 -0.483333 0
0.8 -0.5 0
0.816667 -0.5 0
0.8 -0.483333 0
0.816667 -0.483333 0
0.816667 -0.5 0
0.833333 -0.5 0
0.816667 -0.483333 0
0.833333 -0.483333 0
0.833333 -0.5 0
0.85 -0.5 0
0.833333 -0.483333 0
0.85 -0.483333 0
0.85 -0.5 0
0.866667 -0.5 0
0.85 -0.483333 0
0.866667 -0.483333 0
0.866667 -0.5 0
0.883333 -0.5 0
0.866667 -0.483333 0
0.883333 -0.483333 0
0.883333 -0.5 0
0.9 -0.5 0
0.883333 -0.483333 0
0.9 -0.483333 0
0.9 -0.5 0
0.916667 -0.5 0
0.9 -0.483333 0
0.916667 -0.483333 0
0.916667 -0.5 0
0.933333 -0.5 0
0.916667 -0.483333 0
0.933333 -0.483333 0
0.933333 -0.5 0
0.95 -0.5 0
0.933333 -0.483333 0
0.95 -0.483333 0
0.95 -0.5 0
0.966667 -0.5 0
0.95 -0.483333 0
0.966667 -0.483333 0
0.966667 -0.5 0
0.983333 -0.5 0
0.966667 -0.483333 0
0.983333 -0.483333 0
0.983333 -0.5 0
1 -0.5 0
0.983333 -0.483333 0
1 -0.483333 0
0 -0.483333 0
0.0166667 -0.483333 0
0 -0.466667 0
0.0166667 -0.466667 0
0.0166667 -0.483333 0
0.0333333 -0.483333 0
0.0166667 -0.466667 0
0.0333333 -0.466667 0
0.0333333 -0.483333 0
0.05 -0.483333 0
0.0333333 -0.466667 0
0.05 -0.466667 0
0.05 -0.483333 0
0.0666667 -0.483333 0
0.05 -0.466667 0
0.0666667 -0.466667 0
0.0666667 -0.483333 0
0.0833333 -0.483333 0
0.0666667 -0.466667 0
0.0833333 -0.466667 0
0.0833333 -0.483333 0
0.1 -0.483333 0
0.0833333 -0.466667 0
0.1 -0.466667 0
0.1 -0.483333 0
0.116667 -0.483333 0
0.1 -0.466667 0
0.116667 -0.466667 0
0.116667 -0.483333 0
0.133333 -0.483333 0
0.116667 -0.466667 0
0.133333 -0.466667 0
0.133333 -0.483333 0
0.15 -0.483333 0
0.133333 -0.466667 0
0.15 -0.466667 0
0.15 -0.483333 0
0.166667 -0.483333 0
0.15 -0.466667 0
0.166667 -0.466667 0
0.166667 -0.483333 0
0.183333 -0.483333 0
0.166667 -0.466667 0
0.183333 -0.466667 0
0.183333 -0.483333 0
0.2 -0.483333 0
0.183333 -0.466667 0
0.2 -0.466667 0
0.2 -0.483333 0
0.216667 -0.483333 0
0.2 -0.466667 0
0.216667 -0.466667 0
0.216667 -0.483333 0
0.233333 -0.483333 0
0.216667 -0.466667 0
0.233333 -0.466667 0
0.233333 -0.483333 0
0.25 -0.483333 0
0.233333 -0.466667 0
0.25 -0.466667 0
0.25 -0.483333 0
0.266667 -0.483333 0
0.25 -0.466667 0
0.266667 -0.466667 0
0.266667 -0.483333 0
0.283333 -0.483333 0
0.266667 -0.466667 0
0.283333 -0.466667 0
0.283333 -0.483333 0
0.3 -0.483333 0
0.283333 -0.466667 0
0.3 -0.466667 0
0.3 -0.483333 0
0.316667 -0.483333 0
0.3 -0.466667 0
0.316667 -0.466667 0
0.316667 -0.483333 0
0.333333 -0.483333 0
0.316667 -0.466667 0
0.333333 -0.466667 0
0.333333 -0.483333 0
0.35 -0.483333 0
0.333333 -0.466667 0
0.35 -0.466667 0
0.35 -0.483333 0
0.366667 -0.483333 0
0.35 -0.466667 0
0.366667 -0.466667 0
0.366667 -0.483333 0
0.383333 -0.483333 0
0.366667 -0.466667 0
0.383333 -0.466667 0
0.383333 -0.483333 0
0.4 -0.483333 0
0.383333 -0.466667 0
0.4 -0.466667 0
0.4 -0.483333 0
0.416667 -0.483333 0
0.4 -0.466667 0
0.416667 -0.466667 0
0.416667 -0.483333 0
0.433333 -0.483333 0
0.416667 -0.466667 0
0.433333 -0.466667 0
0.433333 -0.483333 0
0.45 -0.483333 0
0.433333 -0.466667 0
0.45 -0.466667 0
0.45 -0.483333 0
0.466667 -0.483333 0
0.45 -0.466667 0
0.466667 -0.466667 0
0.466667 -0.483333 0
0.483333 -0.483333 0
0.466667 -0.466667 0
0.483333 -0.466667 0
0.483333 -0.483333 0
0.5 -0.483333 0
0.483333 -0.466667 0
0.5 -0.466667 0
0.5 -0.483333 0
0.516667 -0.483333 0
0.5 -0.466667 0
0.516667 -0.466667 0
0.516667 -0.483333 0
0.533333 -0.483333 0
0.516667 -0.466667 0
0.533333 -0.466667 0
0.533333 -0.483333 0
0.55 -0.483333 0
0.533333 -0.466667 0
0.55 -0.466667 0
0.55 -0.483333 0
0.566667 -0.483333 0
0.55 -0.466667 0
0.566667 -0.466667 0
0.566667 -0.483333 0
0.583333 -0.483333 0
0.566667 -0.466667 0
0.583333 -0.466667 0
0.583333 -0.483333 0
0.6 -0.483333 0
0.583333 -0.466667 0
0.6 -0.466667 0
0.6 -0.483333 0
0.616667 -0.483333 0
0.6 -0.466667 0
0.616667 -0.466667 0
0.616667 -0.483333 0
0.633333 -0.483333 0
0.616667 -0.466667 0
0.633333 -0.466667 0
0.633333 -0.483333 0
0.65 -0.483333 0
0.633333 -0.466667 0
0.65 -0.466667 0
0.65 -0.483333 0
0.666667 -0.483333 0
0.65 -0.466667 0
0.666667 -0.466667 0
0.666667 -0.483333 0
0.683333 -0.483333 0
0.666667 -0.466667 0
0.683333 -0.466667 0
0.683333 -0.483333 0
0.7 -0.483333 0
0.683333 -0.466667 0
0.7 -0.466667 0
0.7 -0.483333 0
0.716667 -0.483333 0
0.7 -0.466667 0
0.716667 -0.466667 0
0.716667 -0.483333 0
0.733333 -0.483333 0
0.716667 -0.466667 0
0.733333 -0.466667 0
0.733333 -0.483333 0
0.75 -0.483333 0
0.733333 -0.466667 0
0.75 -0.466667 0
0.75 -0.483333 0
0.766667 -0.483333 0
0.75 -0.466667 0
0.766667 -0.466667 0
0.766667 -0.483333 0
0.783333 -0.483333 0
0.766667 -0.466667 0
0.783333 -0.466667 0
0.783333 -0.483333 0
0.8 -0.483333 0
0.783333 -0.466667 0
0.8 -0.466667 0
0.8 -0.483333 0
0.816667 -0.483333 0
0.8 -0.466667 0
0.816667 -0.466667 0
0.816667 -0.483333 0
0.833333 -0.483333 0
0.816667 -0.466667 0
0.833333 -0.466667 0
0.833333 -0.483333 0
0.85 -0.483333 0
0.833333 -0.466667 0
0.85 -0.466667 0
0.85 -0.483333 0
0.866667 -0.483333 0
0.85 -0.466667 0
0.866667 -0.466667 0
0.866667 -0.483333 0
0.883333 -0.483333 0
0.866667 -0.466667 0
0.883333 -0.466667 0
0.883333 -0.483333 0
0.9 -0.483333 0
0.883333 -0.466667 0
0.9 -0.466667 0
0.9 -0.483333 0
0.916667 -0.483333 0
0.9 -0.466667 0
0.916667 -0.466667 0
0.916667 -0.483333 0
0.933333 -0.483333 0
0.916667 -0.466667 0
0.933333 -0.466667 0
0.933333 -0.483333 0
0.95 -0.483333 0
0.933333 -0.466667 0
0.95 -0.466667 0
0.95 -0.483333 0
0.966667 -0.483333 0
0.95 -0.466667 0
0.966667 -0.466667 0
0.966667 -0.483333 0
0.983333 -0.483333 0
0.966667 -0.466667 0
0.983333 -0.466667 0
0.983333 -0.483333 0
1 -0.483333 0
0.983333 -0.466667 0
1 -0.466667 0
0 -0.466667 0
0.0166667 -0.466667 0
0 -0.45 0
0.0166667 -0.45 0
0.0166667 -0.466667 0
0.0333333 -0.466667 0
0.0166667 -0.45 0
0.0333333 -0.45 0
0.0333333 -0.466667 0
0.05 -0.466667 0
0.0333333 -0.45 0
0.05 -0.45 0
0.05 -0.466667 0
0.0666667 -0.466667 0
0.05 -0.45 0
0.0666667 -0.45 0
0.0666667 -0.466667 0
0.0833333 -0.466667 0
0.0666667 -0.45 0
0.0833333 -0.45 0
0.0833333 -0.466667 0
0.1 -0.466667 0
0.0833333 -0.45 0
0.1 -0.45 0
0.1 -0.466667 0
0.116667 -0.466667 0
0.1 -0.45 0
0.116667 -0.45 0
0.116667 -0.466667 0
0.133333 -0.466667 0
0.116667 -0.45 0
0.133333 -0.45 0
0.133333 -0.466667 0
0.15 -0.466667 0
0.133333 -0.45 0
0.15 -0.45 0
0.15 -0.466667 0
0.166667 -0.466667 0
0.15 -0.45 0
0.166667 -0.45 0
0.166667 -0.466667 0
0.183333 -0.466667 0
0.166667 -0.45 0
0.183333 -0.45 0
0.183333 -0.466667 0
0.2 -0.466667 0
0.183333 -0.45 0
0.2 -0.45 0
0.2 -0.466667 0
0.216667 -0.466667 0
0.2 -0.45 0
0.216667 -0.45 0
0.216667 -0.466667 0
0.233333 -0.466667 0
0.216667 -0.45 0
0.233333 -0.45 0
0.233333 -0.466667 0
0.25 -0.466667 0
0.233333 -0.45 0
0.25 -0.45 0
[...]
POINT_DATA 14400
SCALARS x1_displacement double 1
LOOKUP_TABLE default
0 -0.00342667 0 -0.00148084 -0.00342667 -0.00538523 -0.00148084 -0.00353717 -0.00538523 -0.00663567 -0.00353717 -0.00525652 -0.00663567 -0.00611741 -0.00525652 -0.00600124 -0.00611741 -0.00533041 -0.00600124 -0.00566684 -0.00533041 -0.00466453 -0.00566684 -0.00518583 -0.00466453 -0.00404607 -0.00518583 -0.00469766 -0.00404607 -0.00346846 -0.00469766 -0.00420093 -0.00346846 -0.00291456 -0.00420093 -0.00370159 -0.00291456 -0.0023774 -0.00370159 -0.00320499 -0.0023774 -0.00185583 -0.00320499 -0.00271637 -0.00185583 -0.00135144 -0.00271637 -0.00223958 -0.00135144 -0.000865738 -0.00223958 -0.00177668 -0.000865738 -0.000399014 -0.00177668 -0.00132843 -0.000399014 4.97816e-05 -0.00132843 -0.000894478 4.97816e-05 0.000482848 -0.000894478 -0.000473518 0.000482848 0.000903249 -0.000473518 -6.35569e-05 0.000903249 0.00131462 -6.35569e-05 0.000337889 0.00131462 0.00172088 0.000337889 0.000733574 0.00172088 0.00212594 0.000733574 0.00112629 0.00212594 0.00253339 0.00112629 0.00151865 0.00253339 0.00294627 0.00151865 0.00191286 0.00294627 0.00336679 0.00191286 0.0023105 0.00336679 0.00379615 0.0023105 0.00271243 0.00379615 0.00423444 0.00271243 0.00311868 0.00423444 0.00468061 0.00311868 0.0035284 0.00468061 0.00513258 0.0035284 0.00393998 0.00513258 0.00558741 0.00393998 0.00435111 0.00558741 0.00604151 0.00435111 0.00475903 0.00604151 0.00649094 0.00475903 0.00516064 0.00649094 0.00693167 0.00516064 0.0055528 0.00693167 0.00735979 0.0055528 0.0059324 0.00735979 0.00777173 0.0059324 0.00629658 0.00777173 0.00816432 0.00629658 0.00664279 0.00816432 0.00853488 0.00664279 0.00696884 0.00853488 0.00888123 0.00696884 0.00727292 0.00888123 0.00920166 0.00727292 0.00755356 0.00920166 0.00949484 0.00755356 0.00780967 0.00949484 0.00975985 0.00780967 0.00804043 0.00975985 0.00999604 0.00804043 0.00824534 0.00999604 0.010203 0.00824534 0.0084241 0.010203 0.0103806 0.0084241 0.00857665 0.0103806 0.0105286 0.00857665 0.00870308 0.0105286 0.0106471 0.00870308 0.00880365 0.0106471 0.010736 0.00880365 0.00887871 0.010736 0.0107949 0.00887871 0.00892873 0.0107949 0.0108234 0.00892873 0.00895424 0.0108234 0.0108207 0.00895424 0.00895597 0.0108207 0.0107855 0.00895597 0.00893491 0.0107855 0.0107159 0.00893491 0.00889268 0.0107159 0.0106097 0.00889268 0.00883218 0.0106097 0.0104637 0.00883218 0.00875893 0.0104637 0.0102736 0.00875893 0.00868375 0.0102736 0.0100352 0.00868375 0.00862758 0.0100352 0.00975165 0.00862758 0.00862531 0.00975165 0.00953019 0.00862531 0.00868669 0.00953019 0.00955583 0.00868669 0.00830907 0.00955583 0.00837812 0.00830907 0.00685665 0.00837812 0.00686124 0.00685665 0.00521222 0.00686124 0.005231 0.00521222 0.003524 0 -0.00148084 0 -0.00122544 -0.00148084 -0.00353717 -0.00122544 -0.00281144 -0.00353717 -0.00525652 -0.00281144 -0.00449507 -0.00525652 -0.00600124 -0.00449507 -0.00587896 -0.00600124 -0.00566684 -0.00587896 -0.00604569 -0.00566684 -0.00518583 -0.00604569 -0.00574992 -0.00518583 -0.00469766 -0.00574992 -0.00536269 -0.00469766 -0.00420093 -0.00536269 -0.00493197 -0.00420093 -0.00370159 -0.00493197 -0.00447566 -0.00370159 -0.00320499 -0.00447566 -0.00401004 -0.00320499 -0.00271637 -0.00401004 -0.00354746 -0.00271637 -0.00223958 -0.00354746 -0.00309367 -0.00223958 -0.00177668 -0.00309367 -0.00265174 -0.00177668 -0.00132843 -0.00265174 -0.0022228 -0.00132843 -0.000894478 -0.0022228 -0.00180674 -0.000894478 -0.000473518 -0.00180674 -0.00140272 -0.000473518 -6.35569e-05 -0.00140272 -0.00100925 -6.35569e-05 0.000337889 -0.00100925 -0.000624455 0.000337889 0.000733574 -0.000624455 -0.000246173 0.000733574 0.00112629 -0.000246173 0.000127849 0.00112629 0.00151865 0.000127849 0.000499754 0.00151865 0.00191286 0.000499754 0.00087138 0.00191286 0.0023105 0.00087138 0.00124407 0.0023105 0.00271243 0.00124407 0.00161855 0.00271243 0.00311868 0.00161855 0.00199479 0.00311868 0.0035284 0.00199479 0.00237202 0.0035284 0.00393998 0.00237202 0.00274878 0.00393998 0.00435111 0.00274878 0.00312302 0.00435111 0.00475903 0.00312302 0.00349227 0.00475903 0.00516064 0.00349227 0.00385385 0.00516064 0.0055528 0.00385385 0.00420503 0.0055528 0.0059324 0.00420503 0.0045432 0.0059324 0.00629658 0.0045432 0.00486597 0.00629658 0.00664279 0.00486597 0.00517128 0.00664279 0.00696884 0.00517128 0.00545737 0.00696884 0.00727292 0.00545737 0.0057228 0.00727292 0.00755356 0.0057228 0.00596647 0.00755356 0.00780967 0.00596647 0.00618752 0.00780967 0.00804043 0.00618752 0.00638539 0.00804043 0.00824534 0.00638539 0.00655975 0.00824534 0.0084241 0.00655975 0.00671051 0.0084241 0.00857665 0.00671051 0.00683784 0.00857665 0.00870308 0.00683784 0.00694209 0.00870308 0.00880365 0.00694209 0.00702391 0.00880365 0.00887871 0.00702391 0.00708416 0.00887871 0.00892873 0.00708416 0.00712398 0.00892873 0.00895424 0.00712398 0.00714486 0.00895424 0.00895597 0.00714486 0.00714872 0.00895597 0.00893491 0.00714872 0.00713813 0.00893491 0.00889268 0.00713813 0.00711669 0.00889268 0.00883218 0.00711669 0.00708965 0.00883218 0.00875893 0.00708965 0.00706494 0.00875893 0.00868375 0.00706494 0.00705385 0.00868375 0.00862758 0.00705385 0.0070679 0.00862758 0.00862531 0.0070679 0.00709782 0.00862531 0.00868669 0.00709782 0.00701809 0.00868669 0.00830907 0.00701809 0.00654803 0.00830907 0.00685665 0.00654803 0.00512165 0.00685665 0.00521222 0.00512165 0.00348757 0.00521222 0.003524 0.00348757 0.00176528 0 -0.00122544 0 -0.00109133 -0.00122544 -0.00281144 -0.00109133 -0.00250723 -0.00281144 -0.00449507 -0.00250723 -0.00409255 -0.00449507 -0.00587896 -0.00409255 -0.00565647 -0.00587896 -0.00604569 -0.00565647 -0.00673379 -0.00604569 -0.00574992 -0.00673379 -0.0065282 -0.00574992 -0.00536269 -0.0065282 -0.00612758 -0.00536269 -0.00493197 -0.00612758 -0.00570502 -0.00493197 -0.00447566 -0.00570502 -0.00525647 -0.00447566 -0.00401004 -0.00525647 -0.00480586 -0.00401004 -0.00354746 -0.00480586 -0.00435943 -0.00354746 -0.00309367 -0.00435943 -0.00392294 -0.00309367 -0.00265174 -0.00392294 -0.0034992 -0.00265174 -0.0022228 -0.0034992 -0.00308897 -0.0022228 -0.00180674 -0.00308897 -0.00269204 -0.00180674 -0.00140272 -0.00269204 -0.00230759 -0.00140272 -0.00100925 -0.00230759 -0.00193435 -0.00100925 -0.000624455 -0.00193435 -0.0015706 -0.000624455 -0.000246173 -0.0015706 -0.00121433 -0.000246173 0.000127849 -0.00121433 -0.000863397 0.000127849 0.000499754 -0.000863397 -0.000515683 0.000499754 0.00087138 -0.000515683 -0.000169346 0.00087138 0.00124407 -0.000169346 0.000176998 0.00124407 0.00161855 0.000176998 0.0005241 0.00161855 0.00199479 0.0005241 0.000871957 0.00199479 0.00237202 0.000871957 0.00121978 0.00237202 0.00274878 0.00121978 0.00156603 0.00274878 0.00312302 0.00156603 0.00190861 0.00312302 0.00349227 0.00190861 0.002245 0.00349227 0.00385385 0.002245 0.00257255 0.00385385 0.00420503 0.00257255 0.00288865 0.00420503 0.0045432 0.00288865 0.00319091 0.0045432 0.00486597 0.00319091 0.00347726 0.00486597 0.00517128 0.00347726 0.00374601 0.00517128 0.00545737 0.00374601 0.00399577 0.00545737 0.0057228 0.00399577 0.00422551 0.0057228 0.00596647 0.00422551 0.00443445 0.00596647 0.00618752 0.00443445 0.00462206 0.00618752 0.00638539 0.00462206 0.00478803 0.00638539 0.00655975 0.00478803 0.00493225 0.00655975 0.00671051 0.00493225 0.00505485 0.00671051 0.00683784 0.00505485 0.00515622 0.00683784 0.00694209 0.00515622 0.00523701 0.00694209 0.00702391 0.00523701 0.00529817 0.00702391 0.00708416 0.00529817 0.00534098 0.00708416 0.00712398 0.00534098 0.00536708 0.00712398 0.00714486 0.00536708 0.00537851 0.00714486 0.00714872 0.00537851 0.00537777 0.00714872 0.00713813 0.00537777 0.00536787 0.00713813 0.00711669 0.00536787 0.00535238 0.00711669 0.00708965 0.00535238 0.00533529 0.00708965 0.00706494 0.00533529 0.00532043 0.00706494 0.00705385 0.00532043 0.0053095 0.00705385 0.0070679 0.0053095 0.005294 0.0070679 0.00709782 0.005294 0.00523672 0.00709782 0.00701809 0.00523672 0.0050646 0.00701809 0.00654803 0.0050646 0.00455612 0.00654803 0.00512165 0.00455612 0.00315445 0.00512165 0.00348757 0.00315445 0.00153545 0.00348757 0.00176528 0.00153545 -0.000203477 0 -0.00109133 0 -0.00100873 -0.00109133 -0.00250723 -0.00100873 -0.002294 -0.00250723 -0.00409255 -0.002294 -0.00376722 -0.00409255 -0.00565647 -0.00376722 -0.00531771 -0.00565647 -0.00673379 -0.00531771 -0.00677739 -0.00673379 -0.0065282 -0.00677739 -0.00743366 -0.0065282 -0.00612758 -0.00743366 -0.0069913 -0.00612758 -0.00570502 -0.0069913 -0.00650467 -0.00570502 -0.00525647 -0.00650467 -0.0060487 -0.00525647 -0.00480586 -0.0060487 -0.00559779 -0.00480586 -0.00435943 -0.00559779 -0.00515748 -0.00435943 -0.00392294 -0.00515748 -0.00473276 -0.00392294 -0.0034992 -0.00473276 -0.00432405 -0.0034992 -0.00308897 -0.00432405 -0.00393101 -0.00308897 -0.00269204 -0.00393101 -0.00355303 -0.00269204 -0.00230759 -0.00355303 -0.00318925 -0.00230759 -0.00193435 -0.00318925 -0.00283832 -0.00193435 -0.0015706 -0.00283832 -0.00249839 -0.0015706 -0.00121433 -0.00249839 -0.00216724 -0.00121433 -0.000863397 -0.00216724 -0.00184245 -0.000863397 -0.000515683 -0.00184245 -0.00152161 -0.000515683 -0.000169346 -0.00152161 -0.00120253 -0.000169346 0.000176998 -0.00120253 -0.000883536 0.000176998 0.0005241 -0.000883536 -0.000563657 0.0005241 0.000871957 -0.000563657 -0.000242821 0.000871957 0.00121978 -0.000242821 7.80962e-05 0.00121978 0.00156603 7.80962e-05 0.000397334 0.00156603 0.00190861 0.000397334 0.000712447 0.00190861 0.002245 0.000712447 0.00102059 0.002245 0.00257255 0.00102059 0.00131883 0.00257255 0.00288865 0.00131883 0.00160444 0.00288865 0.00319091 0.00160444 0.00187506 0.00319091 0.00347726 0.00187506 0.0021288 0.00347726 0.00374601 0.0021288 0.00236427 0.00374601 0.00399577 0.00236427 0.00258047 0.00399577 0.00422551 0.00258047 0.00277673 0.00422551 0.00443445 0.00277673 0.00295264 0.00443445 0.00462206 0.00295264 0.00310795 0.00462206 0.00478803 0.00310795 0.00324261 0.00478803 0.00493225 0.00324261 0.00335673 0.00493225 0.00505485 0.00335673 0.00345059 0.00505485 0.00515622 0.00345059 0.00352477 0.00515622 0.00523701 0.00352477 0.00358011 0.00523701 0.00529817 0.00358011 0.00361778 0.00529817 0.00534098 0.00361778 0.00363928 0.00534098 0.00536708 0.00363928 0.00364647 0.00536708 0.00537851 0.00364647 0.00364149 0.00537851 0.00537777 0.00364149 0.00362677 0.00537777 0.00536787 0.00362677 0.00360481 0.00536787 0.00535238 0.00360481 0.0035778 0.00535238 0.00533529 0.0035778 0.00354653 0.00533529 0.00532043 0.00354653 0.00350838 0.00532043 0.0053095 0.00350838 0.00345413 0.0053095 0.005294 0.00345413 0.00336422 0.005294 0.00523672 0.00336422 0.00319886 0.00523672 0.0050646 0.00319886 0.00291697 0.0050646 0.00455612 0.00291697 0.00232844 0.00455612 0.00315445 0.00232844 0.000916912 0.00315445 0.00153545 0.000916912 -0.000711038 0.00153545 -0.000203477 -0.000711038 -0.00246139 0 -0.00100873 0 -0.000949882 -0.00100873 -0.002294 -0.000949882 -0.0021622 -0.002294 -0.00376722 -0.0021622 -0.00355009 -0.00376722 -0.00531771 -0.00355009 -0.00504021 -0.00531771 -0.00677739 -0.00504021 -0.00652924 -0.00677739 -0.00743366 -0.00652924 -0.00778124 -0.00743366 -0.0069913 -0.00778124 -0.00776643 -0.0069913 -0.00650467 -0.00776643 -0.0073149 -0.00650467 -0.0060487 -0.0073149 -0.00684712 -0.0060487 -0.00559779 -0.00684712 -0.00638232 -0.00559779 -0.00515748 -0.00638232 -0.00594269 -0.00515748 -0.00473276 -0.00594269 -0.00552571 -0.00473276 -0.00432405 -0.00552571 -0.00512888 -0.00432405 -0.00393101 -0.00512888 -0.00475063 -0.00393101 -0.00355303 -0.00475063 -0.00439037 -0.00355303 -0.00318925 -0.00439037 -0.00404723 -0.00318925 -0.00283832 -0.00404723 -0.00371957 -0.00283832 -0.00249839 -0.00371957 -0.00340515 -0.00249839 -0.00216724 -0.00340515 -0.00310124 -0.00216724 -0.00184245 -0.00310124 -0.00280486 -0.00184245 -0.00152161 -0.00280486 -0.00251295 -0.00152161 -0.00120253 -0.00251295 -0.00222271 -0.00120253 -0.000883536 -0.00222271 -0.00193189 -0.000883536 -0.000563657 -0.00193189 -0.00163912 -0.000563657 -0.000242821 -0.00163912 -0.00134414 -0.000242821 7.80962e-05 -0.00134414 -0.00104797 7.80962e-05 0.000397334 -0.00104797 -0.00075277 0.000397334 0.000712447 -0.00075277 -0.000461571 0.000712447 0.00102059 -0.000461571 -0.000177864 0.00102059 0.00131883 -0.000177864 9.48719e-05 0.00131883 0.00160444 9.48719e-05 0.000353551 0.00160444 0.00187506 0.000353551 0.000595718 0.00187506 0.0021288 0.000595718 0.000819621 0.0021288 0.00236427 0.000819621 0.00102415 0.00236427 0.00258047 0.00102415 0.0012087 0.00258047 0.00277673 0.0012087 0.001373 0.00277673 0.00295264 0.001373 0.00151699 0.00295264 0.00310795 0.00151699 0.00164071 0.00310795 0.00324261 0.00164071 0.00174431 0.00324261 0.00335673 0.00174431 0.00182802 0.00335673 0.00345059 0.00182802 0.00189226 0.00345059 0.00352477 0.00189226 0.00193764 0.00352477 0.00358011 0.00193764 0.00196508 0.00358011 0.00361778 0.00196508 0.0019758 0.00361778 0.00363928 0.0019758 0.00197136 0.00363928 0.00364647 0.00197136 0.00195354 0.00364647 0.00364149 0.00195354 0.00192425 0.00364149 0.00362677 0.00192425 0.00188534 0.00362677 0.00360481 0.00188534 0.00183829 0.00360481 0.0035778 0.00183829 0.00178364 0.0035778 0.00354653 0.00178364 0.00171955 0.00354653 0.00350838 0.00171955 0.00163882 0.00350838 0.00345413 0.00163882 0.00152546 0.00345413 0.00336422 0.00152546 0.0013554 0.00336422 0.00319886 0.0013554 0.00111175 0.00319886 0.00291697 0.00111175 0.000746568 0.00291697 0.00232844 0.000746568 -0.000149577 0.00232844 0.000916912 -0.000149577 -0.00163506 0.000916912 -0.000711038 -0.00163506 -0.00328407 -0.000711038 -0.00246139 -0.00328407 -0.00503238 0 -0.000949882 0 -0.000905066 -0.000949882 -0.0021622 -0.000905066 -0.00207604 -0.0021622 -0.00355009 -0.00207604 -0.00339752 -0.00355009 -0.00504021 -0.00339752 -0.00481796 -0.00504021 -0.00652924 -0.00481796 -0.00629113 -0.00652924 -0.00778124 -0.00629113 -0.00770031 -0.00778124 -0.00776643 -0.00770031 -0.00858339 -0.00776643 -0.0073149 -0.00858339 -0.00816695 -0.0073149 -0.00684712 -0.00816695 -0.00763141 -0.00684712 -0.00638232 -0.00763141 -0.00715512 -0.00638232 -0.00594269 -0.00715512 -0.00671524 -0.00594269 -0.00552571 -0.00671524 -0.00630379 -0.00552571 -0.00512888 -0.00630379 -0.00591452 -0.00512888 -0.00475063 -0.00591452 -0.00554741 -0.00475063 -0.00439037 -0.00554741 -0.00520281 -0.00439037 -0.00404723 -0.00520281 -0.00487955 -0.00404723 -0.00371957 -0.00487955 -0.00457546 -0.00371957 -0.00340515 -0.00457546 -0.00428758 -0.00340515 -0.00310124 -0.00428758 -0.00401246 -0.00310124 -0.00280486 -0.00401246 -0.00374629 -0.00280486 -0.00251295 -0.00374629 -0.00348511 -0.00251295 -0.00222271 -0.00348511 -0.00322521 -0.00222271 -0.00193189 -0.00322521 -0.00296345 -0.00193189 -0.00163912 -0.00296345 -0.0026978 -0.00163912 -0.00134414 -0.0026978 -0.00242772 -0.00134414 -0.00104797 -0.00242772 -0.00215435 -0.00104797 -0.00075277 -0.00215435 -0.00188046 -0.00075277 -0.000461571 -0.00188046 -0.00161 -0.000461571 -0.000177864 -0.00161 -0.00134744 -0.000177864 9.48719e-05 -0.00134744 -0.00109711 9.48719e-05 0.000353551 -0.00109711 -0.000862642 0.000353551 0.000595718 -0.000862642 -0.000646671 0.000595718 0.000819621 -0.000646671 -0.000450798 0.000819621 0.00102415 -0.000450798 -0.00027577 0.00102415 0.0012087 -0.00027577 -0.000121737 0.0012087 0.001373 -0.000121737 1.14746e-05 0.001373 0.00151699 1.14746e-05 0.000124162 0.00151699 0.00164071 0.000124162 0.000216624 0.00164071 0.00174431 0.000216624 0.000289128 0.00174431 0.00182802 0.000289128 0.000341954 0.00182802 0.00189226 0.000341954 0.000375479 0.00189226 0.00193764 0.000375479 0.000390271 0.00193764 0.00196508 0.000390271 0.000387166 0.00196508 0.0019758 0.000387166 0.000367295 0.0019758 0.00197136 0.000367295 0.000332055 0.00197136 0.00195354 0.000332055 0.000283002 0.00195354 0.00192425 0.000283002 0.000221611 0.00192425 0.00188534 0.000221611 0.000148875 0.00188534 0.00183829 0.000148875 6.5004e-05 0.00183829 0.00178364 6.5004e-05 -3.08305e-05 0.00178364 0.00171955 -3.08305e-05 -0.000141183 0.00171955 0.00163882 -0.000141183 -0.000273201 0.00163882 0.00152546 -0.000273201 -0.000443095 0.00152546 0.0013554 -0.000443095 -0.000676187 0.0013554 0.00111175 -0.000676187 -0.000981281 0.00111175 0.000746568 -0.000981281 -0.00154438 0.000746568 -0.000149577 -0.00154438 -0.00290822 -0.000149577 -0.00163506 -0.00290822 -0.00449374 -0.00163506 -0.00328407 -0.00449374 -0.00615662 -0.00328407 -0.00503238 -0.00615662 -0.00788523 0 -0.000905066 0 -0.00085797 -0.000905066 -0.00207604 -0.00085797 -0.00199444 -0.00207604 -0.00339752 -0.00199444 -0.00322857 -0.00339752 -0.00481796 -0.00322857 -0.00455704 -0.00481796 -0.00629113 -0.00455704 -0.00596831 -0.00629113 -0.00770031 -0.00596831 -0.00740284 -0.00770031 -0.00858339 -0.00740284 -0.0086896 -0.00858339 -0.00816695 -0.0086896 -0.00887509 -0.00816695 -0.00763141 -0.00887509 -0.00839356 -0.00763141 -0.00715512 -0.00839356 -0.00791764 -0.00715512 -0.00671524 -0.00791764 -0.00748248 -0.00671524 -0.00630379 -0.00748248 -0.0070687 -0.00630379 -0.00591452 -0.0070687 -0.0066789 -0.00591452 -0.00554741 -0.0066789 -0.00631851 -0.00554741 -0.00520281 -0.00631851 -0.00598721 -0.00520281 -0.00487955 -0.00598721 -0.00568288 -0.00487955 -0.00457546 -0.00568288 -0.00540232 -0.00457546 -0.00428758 -0.00540232 -0.00514166 -0.00428758 -0.00401246 -0.00514166 -0.00489655 -0.00401246 -0.00374629 -0.00489655 -0.0046622 -0.00374629 -0.00348511 -0.0046622 -0.00443357 -0.00348511 -0.00322521 -0.00443357 -0.00420567 -0.00322521 -0.00296345 -0.00420567 -0.00397415 -0.00296345 -0.0026978 -0.00397415 -0.00373596 -0.0026978 -0.00242772 -0.00373596 -0.00349001 -0.00242772 -0.00215435 -0.00349001 -0.00323763 -0.00215435 -0.00188046 -0.00323763 -0.00298241 -0.00188046 -0.00161 -0.00298241 -0.00272963 -0.00161 -0.00134744 -0.00272963 -0.00248523 -0.00134744 -0.00109711 -0.00248523 -0.00225476 -0.00109711 -0.000862642 -0.00225476 -0.00204256 -0.000862642 -0.000646671 -0.00204256 -0.00185143 -0.000646671 -0.000450798 -0.00185143 -0.00168272 -0.000450798 -0.00027577 -0.00168272 -0.00153663 -0.00027577 -0.000121737 -0.00153663 -0.00141273 -0.000121737 1.14746e-05 -0.00141273 -0.00131031 1.14746e-05 0.000124162 -0.00131031 -0.0012287 0.000124162 0.000216624 -0.0012287 -0.00116742 0.000216624 0.000289128 -0.00116742 -0.00112616 0.000289128 0.000341954 -0.00112616 -0.00110474 0.000341954 0.000375479 -0.00110474 -0.00110297 0.000375479 0.000390271 -0.00110297 -0.00112048 0.000390271 0.000387166 -0.00112048 -0.00115666 0.000387166 0.000367295 -0.00115666 -0.00121061 0.000367295 0.000332055 -0.00121061 -0.00128122 0.000332055 0.000283002 -0.00128122 -0.00136727 0.000283002 0.000221611 -0.00136727 -0.00146772 0.000221611 0.000148875 -0.00146772 -0.00158228 0.000148875 6.5004e-05 -0.00158228 -0.00171247 6.5004e-05 -3.08305e-05 -0.00171247 -0.00186077 -3.08305e-05 -0.000141183 -0.00186077 -0.00202949 -0.000141183 -0.000273201 -0.00202949 -0.00222169 -0.000273201 -0.000443095 -0.00222169 -0.00244705 -0.000443095 -0.000676187 -0.00244705 -0.00271813 -0.000676187 -0.000981281 -0.00271813 -0.00312563 -0.000981281 -0.00154438 -0.00312563 -0.00435671 -0.00154438 -0.00290822 -0.00435671 -0.00593372 -0.00290822 -0.00449374 -0.00593372 -0.00756629 -0.00449374 -0.00615662 -0.00756629 -0.00923274 -0.00615662 -0.00788523 -0.00923274 -0.0109378 0 -0.00085797 0 -0.000730797 -0.00085797 -0.00199444 -0.000730797 -0.00180172 -0.00199444 -0.00322857 -0.00180172 -0.00295677 -0.00322857 -0.00455704 -0.00295677 -0.00422526 -0.00455704 -0.00596831 -0.00422526 -0.00559294 -0.00596831 -0.00740284 -0.00559294 -0.00702859 -0.00740284 -0.0086896 -0.00702859 -0.00843295 -0.0086896 -0.00887509 -0.00843295 -0.00947017 -0.00887509 -0.00839356 -0.00947017 -0.00921266 -0.00839356 -0.00791764 -0.00921266 -0.00871367 -0.00791764 -0.00748248 -0.00871367 -0.008254 -0.00748248 -0.0070687 -0.008254 -0.00781327 -0.0070687 -0.0066789 -0.00781327 -0.00741545 -0.0066789 -0.00631851 -0.00741545 -0.00705837 -0.00631851 -0.00598721 -0.00705837 -0.00673886 -0.00598721 -0.00568288 -0.00673886 -0.00645281