# vtk DataFile Version 3.0
#This file was generated by the deal.II library on 2021/2/10 at 1:06:18
ASCII
DATASET UNSTRUCTURED_GRID

POINTS 14400 double
0 -0.5 0
0.0166667 -0.5 0
0 -0.483333 0
0.0166667 -0.483333 0
0.0166667 -0.5 0
0.0333333 -0.5 0
0.0166667 -0.483333 0
0.0333333 -0.483333 0
0.0333333 -0.5 0
0.05 -0.5 0
0.0333333 -0.483333 0
0.05 -0.483333 0
0.05 -0.5 0
0.0666667 -0.5 0
0.05 -0.483333 0
0.0666667 -0.483333 0
0.0666667 -0.5 0
0.0833333 -0.5 0
0.0666667 -0.483333 0
0.0833333 -0.483333 0
0.0833333 -0.5 0
0.1 -0.5 0
0.0833333 -0.483333 0
0.1 -0.483333 0
0.1 -0.5 0
0.116667 -0.5 0
0.1 -0.483333 0
0.116667 -0.483333 0
0.116667 -0.5 0
0.133333 -0.5 0
0.116667 -0.483333 0
0.133333 -0.483333 0
0.133333 -0.5 0
0.15 -0.5 0
0.133333 -0.483333 0
0.15 -0.483333 0
0.15 -0.5 0
0.166667 -0.5 0
0.15 -0.483333 0
0.166667 -0.483333 0
0.166667 -0.5 0
0.183333 -0.5 0
0.166667 -0.483333 0
0.183333 -0.483333 0
0.183333 -0.5 0
0.2 -0.5 0
0.183333 -0.483333 0
0.2 -0.483333 0
0.2 -0.5 0
0.216667 -0.5 0
0.2 -0.483333 0
0.216667 -0.483333 0
0.216667 -0.5 0
0.233333 -0.5 0
0.216667 -0.483333 0
0.233333 -0.483333 0
0.233333 -0.5 0
0.25 -0.5 0
0.233333 -0.483333 0
0.25 -0.483333 0
0.25 -0.5 0
0.266667 -0.5 0
0.25 -0.483333 0
0.266667 -0.483333 0
0.266667 -0.5 0
0.283333 -0.5 0
0.266667 -0.483333 0
0.283333 -0.483333 0
0.283333 -0.5 0
0.3 -0.5 0
0.283333 -0.483333 0
0.3 -0.483333 0
0.3 -0.5 0
0.316667 -0.5 0
0.3 -0.483333 0
0.316667 -0.483333 0
0.316667 -0.5 0
0.333333 -0.5 0
0.316667 -0.483333 0
0.333333 -0.483333 0
0.333333 -0.5 0
0.35 -0.5 0
0.333333 -0.483333 0
0.35 -0.483333 0
0.35 -0.5 0
0.366667 -0.5 0
0.35 -0.483333 0
0.366667 -0.483333 0
0.366667 -0.5 0
0.383333 -0.5 0
0.366667 -0.483333 0
0.383333 -0.483333 0
0.383333 -0.5 0
0.4 -0.5 0
0.383333 -0.483333 0
0.4 -0.483333 0
0.4 -0.5 0
0.416667 -0.5 0
0.4 -0.483333 0
0.416667 -0.483333 0
0.416667 -0.5 0
0.433333 -0.5 0
0.416667 -0.483333 0
0.433333 -0.483333 0
0.433333 -0.5 0
0.45 -0.5 0
0.433333 -0.483333 0
0.45 -0.483333 0
0.45 -0.5 0
0.466667 -0.5 0
0.45 -0.483333 0
0.466667 -0.483333 0
0.466667 -0.5 0
0.483333 -0.5 0
0.466667 -0.483333 0
0.483333 -0.483333 0
0.483333 -0.5 0
0.5 -0.5 0
0.483333 -0.483333 0
0.5 -0.483333 0
0.5 -0.5 0
0.516667 -0.5 0
0.5 -0.483333 0
0.516667 -0.483333 0
0.516667 -0.5 0
0.533333 -0.5 0
0.516667 -0.483333 0
0.533333 -0.483333 0
0.533333 -0.5 0
0.55 -0.5 0
0.533333 -0.483333 0
0.55 -0.483333 0
0.55 -0.5 0
0.566667 -0.5 0
0.55 -0.483333 0
0.566667 -0.483333 0
0.566667 -0.5 0
0.583333 -0.5 0
0.566667 -0.483333 0
0.583333 -0.483333 0
0.583333 -0.5 0
0.6 -0.5 0
0.583333 -0.483333 0
0.6 -0.483333 0
0.6 -0.5 0
0.616667 -0.5 0
0.6 -0.483333 0
0.616667 -0.483333 0
0.616667 -0.5 0
0.633333 -0.5 0
0.616667 -0.483333 0
0.633333 -0.483333 0
0.633333 -0.5 0
0.65 -0.5 0
0.633333 -0.483333 0
0.65 -0.483333 0
0.65 -0.5 0
0.666667 -0.5 0
0.65 -0.483333 0
0.666667 -0.483333 0
0.666667 -0.5 0
0.683333 -0.5 0
0.666667 -0.483333 0
0.683333 -0.483333 0
0.683333 -0.5 0
0.7 -0.5 0
0.683333 -0.483333 0
0.7 -0.483333 0
0.7 -0.5 0
0.716667 -0.5 0
0.7 -0.483333 0
0.716667 -0.483333 0
0.716667 -0.5 0
0.733333 -0.5 0
0.716667 -0.483333 0
0.733333 -0.483333 0
0.733333 -0.5 0
0.75 -0.5 0
0.733333 -0.483333 0
0.75 -0.483333 0
0.75 -0.5 0
0.766667 -0.5 0
0.75 -0.483333 0
0.766667 -0.483333 0
0.766667 -0.5 0
0.783333 -0.5 0
0.766667 -0.483333 0
0.783333 -0.483333 0
0.783333 -0.5 0
0.8 -0.5 0
0.783333 -0.483333 0
0.8 -0.483333 0
0.8 -0.5 0
0.816667 -0.5 0
0.8 -0.483333 0
0.816667 -0.483333 0
0.816667 -0.5 0
0.833333 -0.5 0
0.816667 -0.483333 0
0.833333 -0.483333 0
0.833333 -0.5 0
0.85 -0.5 0
0.833333 -0.483333 0
0.85 -0.483333 0
0.85 -0.5 0
0.866667 -0.5 0
0.85 -0.483333 0
0.866667 -0.483333 0
0.866667 -0.5 0
0.883333 -0.5 0
0.866667 -0.483333 0
0.883333 -0.483333 0
0.883333 -0.5 0
0.9 -0.5 0
0.883333 -0.483333 0
0.9 -0.483333 0
0.9 -0.5 0
0.916667 -0.5 0
0.9 -0.483333 0
0.916667 -0.483333 0
0.916667 -0.5 0
0.933333 -0.5 0
0.916667 -0.483333 0
0.933333 -0.483333 0
0.933333 -0.5 0
0.95 -0.5 0
0.933333 -0.483333 0
0.95 -0.483333 0
0.95 -0.5 0
0.966667 -0.5 0
0.95 -0.483333 0
0.966667 -0.483333 0
0.966667 -0.5 0
0.983333 -0.5 0
0.966667 -0.483333 0
0.983333 -0.483333 0
0.983333 -0.5 0
1 -0.5 0
0.983333 -0.483333 0
1 -0.483333 0
0 -0.483333 0
0.0166667 -0.483333 0
0 -0.466667 0
0.0166667 -0.466667 0
0.0166667 -0.483333 0
0.0333333 -0.483333 0
0.0166667 -0.466667 0
0.0333333 -0.466667 0
0.0333333 -0.483333 0
0.05 -0.483333 0
0.0333333 -0.466667 0
0.05 -0.466667 0
0.05 -0.483333 0
0.0666667 -0.483333 0
0.05 -0.466667 0
0.0666667 -0.466667 0
0.0666667 -0.483333 0
0.0833333 -0.483333 0
0.0666667 -0.466667 0
0.0833333 -0.466667 0
0.0833333 -0.483333 0
0.1 -0.483333 0
0.0833333 -0.466667 0
0.1 -0.466667 0
0.1 -0.483333 0
0.116667 -0.483333 0
0.1 -0.466667 0
0.116667 -0.466667 0
0.116667 -0.483333 0
0.133333 -0.483333 0
0.116667 -0.466667 0
0.133333 -0.466667 0
0.133333 -0.483333 0
0.15 -0.483333 0
0.133333 -0.466667 0
0.15 -0.466667 0
0.15 -0.483333 0
0.166667 -0.483333 0
0.15 -0.466667 0
0.166667 -0.466667 0
0.166667 -0.483333 0
0.183333 -0.483333 0
0.166667 -0.466667 0
0.183333 -0.466667 0
0.183333 -0.483333 0
0.2 -0.483333 0
0.183333 -0.466667 0
0.2 -0.466667 0
0.2 -0.483333 0
0.216667 -0.483333 0
0.2 -0.466667 0
0.216667 -0.466667 0
0.216667 -0.483333 0
0.233333 -0.483333 0
0.216667 -0.466667 0
0.233333 -0.466667 0
0.233333 -0.483333 0
0.25 -0.483333 0
0.233333 -0.466667 0
0.25 -0.466667 0
0.25 -0.483333 0
0.266667 -0.483333 0
0.25 -0.466667 0
0.266667 -0.466667 0
0.266667 -0.483333 0
0.283333 -0.483333 0
0.266667 -0.466667 0
0.283333 -0.466667 0
0.283333 -0.483333 0
0.3 -0.483333 0
0.283333 -0.466667 0
0.3 -0.466667 0
0.3 -0.483333 0
0.316667 -0.483333 0
0.3 -0.466667 0
0.316667 -0.466667 0
0.316667 -0.483333 0
0.333333 -0.483333 0
0.316667 -0.466667 0
0.333333 -0.466667 0
0.333333 -0.483333 0
0.35 -0.483333 0
0.333333 -0.466667 0
0.35 -0.466667 0
0.35 -0.483333 0
0.366667 -0.483333 0
0.35 -0.466667 0
0.366667 -0.466667 0
0.366667 -0.483333 0
0.383333 -0.483333 0
0.366667 -0.466667 0
0.383333 -0.466667 0
0.383333 -0.483333 0
0.4 -0.483333 0
0.383333 -0.466667 0
0.4 -0.466667 0
0.4 -0.483333 0
0.416667 -0.483333 0
0.4 -0.466667 0
0.416667 -0.466667 0
0.416667 -0.483333 0
0.433333 -0.483333 0
0.416667 -0.466667 0
0.433333 -0.466667 0
0.433333 -0.483333 0
0.45 -0.483333 0
0.433333 -0.466667 0
0.45 -0.466667 0
0.45 -0.483333 0
0.466667 -0.483333 0
0.45 -0.466667 0
0.466667 -0.466667 0
0.466667 -0.483333 0
0.483333 -0.483333 0
0.466667 -0.466667 0
0.483333 -0.466667 0
0.483333 -0.483333 0
0.5 -0.483333 0
0.483333 -0.466667 0
0.5 -0.466667 0
0.5 -0.483333 0
0.516667 -0.483333 0
0.5 -0.466667 0
0.516667 -0.466667 0
0.516667 -0.483333 0
0.533333 -0.483333 0
0.516667 -0.466667 0
0.533333 -0.466667 0
0.533333 -0.483333 0
0.55 -0.483333 0
0.533333 -0.466667 0
0.55 -0.466667 0
0.55 -0.483333 0
0.566667 -0.483333 0
0.55 -0.466667 0
0.566667 -0.466667 0
0.566667 -0.483333 0
0.583333 -0.483333 0
0.566667 -0.466667 0
0.583333 -0.466667 0
0.583333 -0.483333 0
0.6 -0.483333 0
0.583333 -0.466667 0
0.6 -0.466667 0
0.6 -0.483333 0
0.616667 -0.483333 0
0.6 -0.466667 0
0.616667 -0.466667 0
0.616667 -0.483333 0
0.633333 -0.483333 0
0.616667 -0.466667 0
0.633333 -0.466667 0
0.633333 -0.483333 0
0.65 -0.483333 0
0.633333 -0.466667 0
0.65 -0.466667 0
0.65 -0.483333 0
0.666667 -0.483333 0
0.65 -0.466667 0
0.666667 -0.466667 0
0.666667 -0.483333 0
0.683333 -0.483333 0
0.666667 -0.466667 0
0.683333 -0.466667 0
0.683333 -0.483333 0
0.7 -0.483333 0
0.683333 -0.466667 0
0.7 -0.466667 0
0.7 -0.483333 0
0.716667 -0.483333 0
0.7 -0.466667 0
0.716667 -0.466667 0
0.716667 -0.483333 0
0.733333 -0.483333 0
0.716667 -0.466667 0
0.733333 -0.466667 0
0.733333 -0.483333 0
0.75 -0.483333 0
0.733333 -0.466667 0
0.75 -0.466667 0
0.75 -0.483333 0
0.766667 -0.483333 0
0.75 -0.466667 0
0.766667 -0.466667 0
0.766667 -0.483333 0
0.783333 -0.483333 0
0.766667 -0.466667 0
0.783333 -0.466667 0
0.783333 -0.483333 0
0.8 -0.483333 0
0.783333 -0.466667 0
0.8 -0.466667 0
0.8 -0.483333 0
0.816667 -0.483333 0
0.8 -0.466667 0
0.816667 -0.466667 0
0.816667 -0.483333 0
0.833333 -0.483333 0
0.816667 -0.466667 0
0.833333 -0.466667 0
0.833333 -0.483333 0
0.85 -0.483333 0
0.833333 -0.466667 0
0.85 -0.466667 0
0.85 -0.483333 0
0.866667 -0.483333 0
0.85 -0.466667 0
0.866667 -0.466667 0
0.866667 -0.483333 0
0.883333 -0.483333 0
0.866667 -0.466667 0
0.883333 -0.466667 0
0.883333 -0.483333 0
0.9 -0.483333 0
0.883333 -0.466667 0
0.9 -0.466667 0
0.9 -0.483333 0
0.916667 -0.483333 0
0.9 -0.466667 0
0.916667 -0.466667 0
0.916667 -0.483333 0
0.933333 -0.483333 0
0.916667 -0.466667 0
0.933333 -0.466667 0
0.933333 -0.483333 0
0.95 -0.483333 0
0.933333 -0.466667 0
0.95 -0.466667 0
0.95 -0.483333 0
0.966667 -0.483333 0
0.95 -0.466667 0
0.966667 -0.466667 0
0.966667 -0.483333 0
0.983333 -0.483333 0
0.966667 -0.466667 0
0.983333 -0.466667 0
0.983333 -0.483333 0
1 -0.483333 0
0.983333 -0.466667 0
1 -0.466667 0
0 -0.466667 0
0.0166667 -0.466667 0
0 -0.45 0
0.0166667 -0.45 0
0.0166667 -0.466667 0
0.0333333 -0.466667 0
0.0166667 -0.45 0
0.0333333 -0.45 0
0.0333333 -0.466667 0
0.05 -0.466667 0
0.0333333 -0.45 0
0.05 -0.45 0
0.05 -0.466667 0
0.0666667 -0.466667 0
0.05 -0.45 0
0.0666667 -0.45 0
0.0666667 -0.466667 0
0.0833333 -0.466667 0
0.0666667 -0.45 0
0.0833333 -0.45 0
0.0833333 -0.466667 0
0.1 -0.466667 0
0.0833333 -0.45 0
0.1 -0.45 0
0.1 -0.466667 0
0.116667 -0.466667 0
0.1 -0.45 0
0.116667 -0.45 0
0.116667 -0.466667 0
0.133333 -0.466667 0
0.116667 -0.45 0
0.133333 -0.45 0
0.133333 -0.466667 0
0.15 -0.466667 0
0.133333 -0.45 0
0.15 -0.45 0
0.15 -0.466667 0
0.166667 -0.466667 0
0.15 -0.45 0
0.166667 -0.45 0
0.166667 -0.466667 0
0.183333 -0.466667 0
0.166667 -0.45 0
0.183333 -0.45 0
0.183333 -0.466667 0
0.2 -0.466667 0
0.183333 -0.45 0
0.2 -0.45 0
0.2 -0.466667 0
0.216667 -0.466667 0
0.2 -0.45 0
0.216667 -0.45 0
0.216667 -0.466667 0
0.233333 -0.466667 0
0.216667 -0.45 0
0.233333 -0.45 0
0.233333 -0.466667 0
0.25 -0.466667 0
0.233333 -0.45 0
0.25 -0.45 0
[...]
POINT_DATA 14400
SCALARS x1_displacement double 1
LOOKUP_TABLE default
0 0.000327206 0 0.000405181 0.000327206 0.000831096 0.000405181 0.000936516 0.000831096 0.00148063 0.000936516 0.00152663 0.00148063 0.00222007 0.00152663 0.00215816 0.00222007 0.00299746 0.00215816 0.00281065 0.00299746 0.00377666 0.00281065 0.00346666 0.00377666 0.00453584 0.00346666 0.00411409 0.00453584 0.00526431 0.00411409 0.00474592 0.00526431 0.00595877 0.00474592 0.00535895 0.00595877 0.00662035 0.00535895 0.00595267 0.00662035 0.00725259 0.00595267 0.00652822 0.00725259 0.00786008 0.00652822 0.00708769 0.00786008 0.0084477 0.00708769 0.00763368 0.0084477 0.00902019 0.00763368 0.00816889 0.00902019 0.00958188 0.00816889 0.00869595 0.00958188 0.0101365 0.00869595 0.00921723 0.0101365 0.0106873 0.00921723 0.00973468 0.0106873 0.0112365 0.00973468 0.0102498 0.0112365 0.0117856 0.0102498 0.0107634 0.0117856 0.0123352 0.0107634 0.0112758 0.0123352 0.0128849 0.0112758 0.0117865 0.0128849 0.0134332 0.0117865 0.012294 0.0134332 0.0139778 0.012294 0.0127966 0.0139778 0.0145154 0.0127966 0.0132914 0.0145154 0.0150419 0.0132914 0.0137753 0.0150419 0.0155529 0.0137753 0.0142448 0.0155529 0.0160437 0.0142448 0.0146961 0.0160437 0.0165098 0.0146961 0.0151256 0.0165098 0.0169468 0.0151256 0.01553 0.0169468 0.0173513 0.01553 0.0159064 0.0173513 0.0177206 0.0159064 0.0162527 0.0177206 0.0180532 0.0162527 0.0165674 0.0180532 0.0183487 0.0165674 0.0168502 0.0183487 0.0186077 0.0168502 0.0171013 0.0186077 0.0188323 0.0171013 0.017322 0.0188323 0.0190251 0.017322 0.0175142 0.0190251 0.0191897 0.0175142 0.0176804 0.0191897 0.0193299 0.0176804 0.0178233 0.0193299 0.0194498 0.0178233 0.0179458 0.0194498 0.0195528 0.0179458 0.0180505 0.0195528 0.0196422 0.0180505 0.0181396 0.0196422 0.0197199 0.0181396 0.018215 0.0197199 0.0197873 0.018215 0.0182774 0.0197873 0.0198445 0.0182774 0.0183274 0.0198445 0.0198907 0.0183274 0.0183645 0.0198907 0.0199241 0.0183645 0.0183879 0.0199241 0.0199423 0.0183879 0.0183964 0.0199423 0.0199424 0.0183964 0.0183888 0.0199424 0.0199209 0.0183888 0.0183636 0.0199209 0.0198736 0.0183636 0.01832 0.0198736 0.0197957 0.01832 0.0182573 0.0197957 0.0196816 0.0182573 0.0181759 0.0196816 0.019525 0.0181759 0.0180785 0.019525 0.0193203 0.0180785 0.0179717 0.0193203 0.0190681 0.0179717 0.0178711 0.0190681 0.0187806 0.0178711 0.0178148 0.0187806 0.0185373 0.0178148 0.0178224 0.0185373 0.0183877 0.0178224 0.0173769 0.0183877 0.0170942 0.0173769 0.0159091 0.0170942 0.0154839 0.0159091 0.0142283 0 0.000405181 0 0.000386866 0.000405181 0.000936516 0.000386866 0.000895913 0.000936516 0.00152663 0.000895913 0.00145654 0.00152663 0.00215816 0.00145654 0.00203124 0.00215816 0.00281065 0.00203124 0.00260499 0.00281065 0.00346666 0.00260499 0.0031711 0.00346666 0.00411409 0.0031711 0.00372704 0.00411409 0.00474592 0.00372704 0.0042721 0.00474592 0.00535895 0.0042721 0.00480628 0.00535895 0.00595267 0.00480628 0.00532999 0.00595267 0.00652822 0.00532999 0.00584395 0.00652822 0.00708769 0.00584395 0.00634916 0.00708769 0.00763368 0.00634916 0.00684683 0.00763368 0.00816889 0.00684683 0.00733827 0.00816889 0.00869595 0.00733827 0.00782484 0.00869595 0.00921723 0.00782484 0.00830783 0.00921723 0.00973468 0.00830783 0.00878835 0.00973468 0.0102498 0.00878835 0.00926724 0.0102498 0.0107634 0.00926724 0.00974493 0.0107634 0.0112758 0.00974493 0.0102214 0.0112758 0.0117865 0.0102214 0.0106961 0.0117865 0.012294 0.0106961 0.0111678 0.012294 0.0127966 0.0111678 0.0116349 0.0127966 0.0132914 0.0116349 0.0120948 0.0132914 0.0137753 0.0120948 0.0125449 0.0137753 0.0142448 0.0125449 0.0129819 0.0142448 0.0146961 0.0129819 0.0134027 0.0146961 0.0151256 0.0134027 0.0138039 0.0151256 0.01553 0.0138039 0.0141826 0.01553 0.0159064 0.0141826 0.0145362 0.0159064 0.0162527 0.0145362 0.0148627 0.0162527 0.0165674 0.0148627 0.0151608 0.0165674 0.0168502 0.0151608 0.0154299 0.0168502 0.0171013 0.0154299 0.0156702 0.0171013 0.017322 0.0156702 0.0158824 0.017322 0.0175142 0.0158824 0.0160681 0.0175142 0.0176804 0.0160681 0.0162291 0.0176804 0.0178233 0.0162291 0.0163678 0.0178233 0.0179458 0.0163678 0.0164865 0.0179458 0.0180505 0.0164865 0.0165873 0.0180505 0.0181396 0.0165873 0.0166722 0.0181396 0.018215 0.0166722 0.0167426 0.018215 0.0182774 0.0167426 0.0167993 0.0182774 0.0183274 0.0167993 0.0168427 0.0183274 0.0183645 0.0168427 0.0168728 0.0183645 0.0183879 0.0168728 0.0168891 0.0183879 0.0183964 0.0168891 0.0168913 0.0183964 0.0183888 0.0168913 0.0168793 0.0183888 0.0183636 0.0168793 0.0168535 0.0183636 0.01832 0.0168535 0.0168152 0.01832 0.0182573 0.0168152 0.0167668 0.0182573 0.0181759 0.0167668 0.016712 0.0181759 0.0180785 0.016712 0.0166562 0.0180785 0.0179717 0.0166562 0.0166054 0.0179717 0.0178711 0.0166054 0.0165617 0.0178711 0.0178148 0.0165617 0.016507 0.0178148 0.0178224 0.016507 0.0163688 0.0178224 0.0173769 0.0163688 0.0158722 0.0173769 0.0159091 0.0158722 0.0144408 0.0159091 0.0142283 0.0144408 0.0127456 0 0.000386866 0 0.000343905 0.000386866 0.000895913 0.000343905 0.000816402 0.000895913 0.00145654 0.000816402 0.00134114 0.00145654 0.00203124 0.00134114 0.00186788 0.00203124 0.00260499 0.00186788 0.00237733 0.00260499 0.0031711 0.00237733 0.00286807 0.0031711 0.00372704 0.00286807 0.00334456 0.00372704 0.0042721 0.00334456 0.00381144 0.0042721 0.00480628 0.00381144 0.0042719 0.00480628 0.00532999 0.0042719 0.00472782 0.00532999 0.00584395 0.00472782 0.0051802 0.00584395 0.00634916 0.0051802 0.00562964 0.00634916 0.00684683 0.00562964 0.00607657 0.00684683 0.00733827 0.00607657 0.00652145 0.00733827 0.00782484 0.00652145 0.00696477 0.00782484 0.00830783 0.00696477 0.00740709 0.00830783 0.00878835 0.00740709 0.00784894 0.00878835 0.00926724 0.00784894 0.00829076 0.00926724 0.00974493 0.00829076 0.00873277 0.00974493 0.0102214 0.00873277 0.00917484 0.0102214 0.0106961 0.00917484 0.00961642 0.0106961 0.0111678 0.00961642 0.0100564 0.0111678 0.0116349 0.0100564 0.0104932 0.0116349 0.0120948 0.0104932 0.0109245 0.0120948 0.0125449 0.0109245 0.0113476 0.0125449 0.0129819 0.0113476 0.0117593 0.0129819 0.0134027 0.0117593 0.0121565 0.0134027 0.0138039 0.0121565 0.0125359 0.0138039 0.0141826 0.0125359 0.0128946 0.0141826 0.0145362 0.0128946 0.0132298 0.0145362 0.0148627 0.0132298 0.0135396 0.0148627 0.0151608 0.0135396 0.0138225 0.0151608 0.0154299 0.0138225 0.0140779 0.0154299 0.0156702 0.0140779 0.0143057 0.0156702 0.0158824 0.0143057 0.0145066 0.0158824 0.0160681 0.0145066 0.0146819 0.0160681 0.0162291 0.0146819 0.0148333 0.0162291 0.0163678 0.0148333 0.0149632 0.0163678 0.0164865 0.0149632 0.0150736 0.0164865 0.0165873 0.0150736 0.0151667 0.0165873 0.0166722 0.0151667 0.0152443 0.0166722 0.0167426 0.0152443 0.0153076 0.0167426 0.0167993 0.0153076 0.0153575 0.0167993 0.0168427 0.0153575 0.0153942 0.0168427 0.0168728 0.0153942 0.0154174 0.0168728 0.0168891 0.0154174 0.015427 0.0168891 0.0168913 0.015427 0.0154228 0.0168913 0.0168793 0.0154228 0.0154052 0.0168793 0.0168535 0.0154052 0.0153754 0.0168535 0.0168152 0.0153754 0.0153361 0.0168152 0.0167668 0.0153361 0.0152906 0.0167668 0.016712 0.0152906 0.0152427 0.016712 0.0166562 0.0152427 0.0151961 0.0166562 0.0166054 0.0151961 0.0151516 0.0166054 0.0165617 0.0151516 0.0150994 0.0165617 0.016507 0.0150994 0.014992 0.016507 0.0163688 0.014992 0.0147699 0.0163688 0.0158722 0.0147699 0.0140153 0.0158722 0.0144408 0.0140153 0.0125434 0.0144408 0.0127456 0.0125434 0.0108417 0 0.000343905 0 0.000290337 0.000343905 0.000816402 0.000290337 0.000726695 0.000816402 0.00134114 0.000726695 0.00120971 0.00134114 0.00186788 0.00120971 0.00168045 0.00186788 0.00237733 0.00168045 0.0021223 0.00237733 0.00286807 0.0021223 0.00254024 0.00286807 0.00334456 0.00254024 0.00294344 0.00334456 0.00381144 0.00294344 0.00333931 0.00381144 0.0042719 0.00333931 0.00373258 0.0042719 0.00472782 0.00373258 0.00412581 0.00472782 0.0051802 0.00412581 0.00452012 0.0051802 0.00562964 0.00452012 0.00491588 0.00562964 0.00607657 0.00491588 0.00531305 0.00607657 0.00652145 0.00531305 0.00571155 0.00652145 0.00696477 0.00571155 0.00611138 0.00696477 0.00740709 0.00611138 0.00651266 0.00740709 0.00784894 0.00651266 0.00691564 0.00784894 0.00829076 0.00691564 0.0073206 0.00829076 0.00873277 0.0073206 0.00772774 0.00873277 0.00917484 0.00772774 0.00813702 0.00917484 0.00961642 0.00813702 0.008548 0.00961642 0.0100564 0.008548 0.00895973 0.0100564 0.0104932 0.00895973 0.00937059 0.0104932 0.0109245 0.00937059 0.0097783 0.0109245 0.0113476 0.0097783 0.01018 0.0113476 0.0117593 0.01018 0.0105723 0.0117593 0.0121565 0.0105723 0.0109518 0.0121565 0.0125359 0.0109518 0.0113148 0.0125359 0.0128946 0.0113148 0.0116581 0.0128946 0.0132298 0.0116581 0.0119788 0.0132298 0.0135396 0.0119788 0.0122746 0.0135396 0.0138225 0.0122746 0.0125441 0.0138225 0.0140779 0.0125441 0.0127863 0.0140779 0.0143057 0.0127863 0.0130012 0.0143057 0.0145066 0.0130012 0.0131892 0.0145066 0.0146819 0.0131892 0.0133519 0.0146819 0.0148333 0.0133519 0.013491 0.0148333 0.0149632 0.013491 0.0136089 0.0149632 0.0150736 0.0136089 0.013708 0.0150736 0.0151667 0.013708 0.0137907 0.0151667 0.0152443 0.0137907 0.0138588 0.0152443 0.0153076 0.0138588 0.0139135 0.0153076 0.0153575 0.0139135 0.0139554 0.0153575 0.0153942 0.0139554 0.0139845 0.0153942 0.0154174 0.0139845 0.0140001 0.0154174 0.015427 0.0140001 0.0140016 0.015427 0.0154228 0.0140016 0.0139885 0.0154228 0.0154052 0.0139885 0.0139608 0.0154052 0.0153754 0.0139608 0.0139197 0.0153754 0.0153361 0.0139197 0.0138679 0.0153361 0.0152906 0.0138679 0.0138085 0.0152906 0.0152427 0.0138085 0.0137435 0.0152427 0.0151961 0.0137435 0.0136724 0.0151961 0.0151516 0.0136724 0.0135911 0.0151516 0.0150994 0.0135911 0.0134881 0.0150994 0.014992 0.0134881 0.0133487 0.014992 0.0147699 0.0133487 0.0130208 0.0147699 0.0140153 0.0130208 0.0117918 0.0140153 0.0125434 0.0117918 0.0102251 0.0125434 0.0108417 0.0102251 0.00852543 0 0.000290337 0 0.000226626 0.000290337 0.000726695 0.000226626 0.000628044 0.000726695 0.00120971 0.000628044 0.00105759 0.00120971 0.00168045 0.00105759 0.00145438 0.00168045 0.0021223 0.00145438 0.00181938 0.0021223 0.00254024 0.00181938 0.00216485 0.00254024 0.00294344 0.00216485 0.00250091 0.00294344 0.00333931 0.00250091 0.00283427 0.00333931 0.00373258 0.00283427 0.003169 0.00373258 0.00412581 0.003169 0.00350726 0.00412581 0.00452012 0.00350726 0.00384985 0.00452012 0.00491588 0.00384985 0.00419682 0.00491588 0.00531305 0.00419682 0.00454782 0.00531305 0.00571155 0.00454782 0.00490248 0.00571155 0.00611138 0.00490248 0.00526054 0.00611138 0.00651266 0.00526054 0.00562198 0.00651266 0.00691564 0.00562198 0.00598702 0.00691564 0.0073206 0.00598702 0.00635605 0.0073206 0.00772774 0.00635605 0.00672948 0.00772774 0.00813702 0.00672948 0.00710755 0.00813702 0.008548 0.00710755 0.00749014 0.008548 0.00895973 0.00749014 0.00787648 0.00895973 0.00937059 0.00787648 0.00826504 0.00937059 0.0097783 0.00826504 0.00865344 0.0097783 0.01018 0.00865344 0.00903849 0.01018 0.0105723 0.00903849 0.00941638 0.0105723 0.0109518 0.00941638 0.009783 0.0109518 0.0113148 0.009783 0.0101342 0.0113148 0.0116581 0.0101342 0.0104663 0.0116581 0.0119788 0.0104663 0.010776 0.0119788 0.0122746 0.010776 0.0110607 0.0122746 0.0125441 0.0110607 0.0113187 0.0125441 0.0127863 0.0113187 0.0115489 0.0127863 0.0130012 0.0115489 0.0117512 0.0130012 0.0131892 0.0117512 0.0119261 0.0131892 0.0133519 0.0119261 0.012075 0.0133519 0.013491 0.012075 0.0122002 0.013491 0.0136089 0.0122002 0.0123044 0.0136089 0.013708 0.0123044 0.0123904 0.013708 0.0137907 0.0123904 0.012461 0.0137907 0.0138588 0.012461 0.0125183 0.0138588 0.0139135 0.0125183 0.0125632 0.0139135 0.0139554 0.0125632 0.0125962 0.0139554 0.0139845 0.0125962 0.0126165 0.0139845 0.0140001 0.0126165 0.012623 0.0140001 0.0140016 0.012623 0.0126143 0.0140016 0.0139885 0.0126143 0.0125886 0.0139885 0.0139608 0.0125886 0.012545 0.0139608 0.0139197 0.012545 0.0124832 0.0139197 0.0138679 0.0124832 0.0124054 0.0138679 0.0138085 0.0124054 0.0123144 0.0138085 0.0137435 0.0123144 0.0122108 0.0137435 0.0136724 0.0122108 0.0120873 0.0136724 0.0135911 0.0120873 0.0119333 0.0135911 0.0134881 0.0119333 0.0117348 0.0134881 0.0133487 0.0117348 0.0114539 0.0133487 0.0130208 0.0114539 0.010765 0.0130208 0.0117918 0.010765 0.00927163 0.0117918 0.0102251 0.00927163 0.00762193 0.0102251 0.00852543 0.00762193 0.00592239 0 0.000226626 0 0.000135793 0.000226626 0.000628044 0.000135793 0.000494562 0.000628044 0.00105759 0.000494562 0.000834392 0.00105759 0.00145438 0.000834392 0.0011397 0.00145438 0.00181938 0.0011397 0.00142861 0.00181938 0.00216485 0.00142861 0.00171152 0.00216485 0.00250091 0.00171152 0.00199331 0.00250091 0.00283427 0.00199331 0.00227714 0.00283427 0.003169 0.00227714 0.00256533 0.003169 0.00350726 0.00256533 0.0028591 0.00350726 0.00384985 0.0028591 0.00315877 0.00384985 0.00419682 0.00315877 0.00346408 0.00419682 0.00454782 0.00346408 0.00377451 0.00454782 0.00490248 0.00377451 0.00408958 0.00490248 0.00526054 0.00408958 0.00440902 0.00526054 0.00562198 0.00440902 0.00473292 0.00562198 0.00598702 0.00473292 0.00506172 0.00598702 0.00635605 0.00506172 0.00539616 0.00635605 0.00672948 0.00539616 0.00573712 0.00672948 0.00710755 0.00573712 0.00608538 0.00710755 0.00749014 0.00608538 0.00644133 0.00749014 0.00787648 0.00644133 0.00680462 0.00787648 0.00826504 0.00680462 0.00717387 0.00826504 0.00865344 0.00717387 0.00754657 0.00865344 0.00903849 0.00754657 0.00791907 0.00903849 0.00941638 0.00791907 0.00828688 0.00941638 0.009783 0.00828688 0.00864505 0.009783 0.0101342 0.00864505 0.00898869 0.0101342 0.0104663 0.00898869 0.00931334 0.0104663 0.010776 0.00931334 0.00961526 0.010776 0.0110607 0.00961526 0.0098916 0.0110607 0.0113187 0.0098916 0.0101403 0.0113187 0.0115489 0.0101403 0.0103603 0.0115489 0.0117512 0.0103603 0.0105511 0.0117512 0.0119261 0.0105511 0.0107135 0.0119261 0.012075 0.0107135 0.0108488 0.012075 0.0122002 0.0108488 0.0109597 0.0122002 0.0123044 0.0109597 0.0110494 0.0123044 0.0123904 0.0110494 0.0111215 0.0123904 0.012461 0.0111215 0.0111793 0.012461 0.0125183 0.0111793 0.0112251 0.0125183 0.0125632 0.0112251 0.01126 0.0125632 0.0125962 0.01126 0.0112835 0.0125962 0.0126165 0.0112835 0.0112942 0.0126165 0.012623 0.0112942 0.0112901 0.012623 0.0126143 0.0112901 0.0112686 0.0126143 0.0125886 0.0112686 0.0112269 0.0125886 0.012545 0.0112269 0.0111618 0.012545 0.0124832 0.0111618 0.0110705 0.0124832 0.0124054 0.0110705 0.0109529 0.0124054 0.0123144 0.0109529 0.0108139 0.0123144 0.0122108 0.0108139 0.0106541 0.0122108 0.0120873 0.0106541 0.0104636 0.0120873 0.0119333 0.0104636 0.0102183 0.0119333 0.0117348 0.0102183 0.00991862 0.0117348 0.0114539 0.00991862 0.00939384 0.0114539 0.010765 0.00939384 0.00809271 0.010765 0.00927163 0.00809271 0.00650267 0.00927163 0.00762193 0.00650267 0.00485194 0.00762193 0.00592239 0.00485194 0.00320467 0 0.000135793 0 -4.601e-05 0.000135793 0.000494562 -4.601e-05 0.000174769 0.000494562 0.000834392 0.000174769 0.000411191 0.000834392 0.0011397 0.000411191 0.000651627 0.0011397 0.00142861 0.000651627 0.000899018 0.00142861 0.00171152 0.000899018 0.00114903 0.00171152 0.00199331 0.00114903 0.00139974 0.00199331 0.00227714 0.00139974 0.00165292 0.00227714 0.00256533 0.00165292 0.00191016 0.00256533 0.0028591 0.00191016 0.00217246 0.0028591 0.00315877 0.00217246 0.00243998 0.00315877 0.00346408 0.00243998 0.00271238 0.00346408 0.00377451 0.00271238 0.00298921 0.00377451 0.00408958 0.00298921 0.00327011 0.00408958 0.00440902 0.00327011 0.00355504 0.00440902 0.00473292 0.00355504 0.00384439 0.00473292 0.00506172 0.00384439 0.00413904 0.00506172 0.00539616 0.00413904 0.00444033 0.00539616 0.00573712 0.00444033 0.00474986 0.00573712 0.00608538 0.00474986 0.00506927 0.00608538 0.00644133 0.00506927 0.00539977 0.00644133 0.00680462 0.00539977 0.00574168 0.00680462 0.00717387 0.00574168 0.00609397 0.00717387 0.00754657 0.00609397 0.00645402 0.00754657 0.00791907 0.00645402 0.0068176 0.00791907 0.00828688 0.0068176 0.00717926 0.00828688 0.00864505 0.00717926 0.00753296 0.00864505 0.00898869 0.00753296 0.00787273 0.00898869 0.00931334 0.00787273 0.00819334 0.00931334 0.00961526 0.00819334 0.00849053 0.00961526 0.0098916 0.00849053 0.00876119 0.0098916 0.0101403 0.00876119 0.00900317 0.0101403 0.0103603 0.00900317 0.00921517 0.0103603 0.0105511 0.00921517 0.00939673 0.0105511 0.0107135 0.00939673 0.00954824 0.0107135 0.0108488 0.00954824 0.00967123 0.0108488 0.0109597 0.00967123 0.00976851 0.0109597 0.0110494 0.00976851 0.00984406 0.0110494 0.0111215 0.00984406 0.00990243 0.0111215 0.0111793 0.00990243 0.00994776 0.0111793 0.0112251 0.00994776 0.00998274 0.0112251 0.01126 0.00998274 0.010008 0.01126 0.0112835 0.010008 0.0100223 0.0112835 0.0112942 0.0100223 0.010023 0.0112942 0.0112901 0.010023 0.0100068 0.0112901 0.0112686 0.0100068 0.0099702 0.0112686 0.0112269 0.0099702 0.00990925 0.0112269 0.0111618 0.00990925 0.00981908 0.0111618 0.0110705 0.00981908 0.00969346 0.0110705 0.0109529 0.00969346 0.0095255 0.0109529 0.0108139 0.0095255 0.00931948 0.0108139 0.0106541 0.00931948 0.00909252 0.0106541 0.0104636 0.00909252 0.00881759 0.0104636 0.0102183 0.00881759 0.00849198 0.0102183 0.00991862 0.00849198 0.00796841 0.00991862 0.00939384 0.00796841 0.00669465 0.00939384 0.00809271 0.00669465 0.00512369 0.00809271 0.00650267 0.00512369 0.0035265 0.00650267 0.00485194 0.0035265 0.00200571 0.00485194 0.00320467 0.00200571 0.0006656 0 -4.601e-05 0 -0.00098286 -4.601e-05 0.000174769 -0.00098286 -0.000738393 0.000174769 0.000411191 -0.000738393 -0.000390486 0.000411191 0.000651627 -0.000390486 -8.65961e-05 0.000651627 0.000899018 -8.65961e-05 0.000196906 0.000899018 0.00114903 0.000196906 0.000458676 0.00114903 0.00139974 0.000458676 0.000709012 0.00139974 0.00165292 0.000709012 0.000953977 0.00165292 0.00191016 0.000953977 0.00119818 0.00191016 0.00217246 0.00119818 0.00144357 0.00217246 0.00243998 0.00144357 0.00169078 0.00243998 0.00271238 0.00169078 0.00193989 0.00271238 0.00298921 0.00193989 0.00219084 0.00298921 0.00327011 0.00219084 0.00244364 0.00327011 0.00355504 0.00244364 0.00269865 0.00355504 0.00384439 0.00269865 0.00295675 0.00384439 0.00413904 0.00295675 0.00321943 0.00413904 0.00444033 0.00321943 0.00348881 0.00444033 0.00474986 0.00348881 0.0037675 0.00474986 0.00506927 0.0037675 0.00405831 0.00506927 0.00539977 0.00405831 0.00436368 0.00539977 0.00574168 0.00436368 0.00468501 0.00574168 0.00609397 0.00468501 0.00502194 0.00609397 0.00645402 0.00502194 0.00537182 0.00645402 0.0068176 0.00537182 0.00572971 0.0068176 0.00717926 0.00572971 0.00608886 0.00717926 0.00753296 0.00608886 0.00644171 0.00753296 0.00787273 0.00644171 0.00678096 0.00787273 0.00819334 0.00678096 0.00710046 0.00819334 0.00849053 0.00710046 0.00739555 0.00849053 0.00876119 0.00739555 0.00766306 0.00876119 0.00900317 0.00766306 0.00790095 0.00900317 0.00921517 0.00790095 0.00810794 0.00921517 0.00939673 0.00810794 0.00828331 0.00939673 0.00954824 0.00828331 0.00842708 0.00954824 0.00967123 0.00842708 0.00854042 0.00967123 0.00976851 0.00854042 0.0086262 0.00976851 0.00984406 0.0086262 0.00868913 0.00984406 0.00990243 0.00868913 0.00873509 0.00990243 0.00994776 0.00873509 0.00876954 0.00994776 0.00998274 0.00876954 0.00879565 0.00998274 0.010008 0.00879565 0.0088134 0.010008 0.0100223 0.0088134 0.00881992 0.0100223 0.010023 0.00881992 0.00881083 0.010023 0.0100068 0.00881083 0.00878143 0.0100068 0.0099702 0.00878143 0.00872684 0.0099702 0.00990925 0.00872684 0.00864272 0.00990925 0.00981908 0.00864272 0.00852483 0.00981908 0.00969346 0.00852483 0.00836483 0.00969346 0.0095255 0.00836483 0.00815147 0.0095255 0.00931948 0.00815147 0.00786969 0.00931948 0.00909252 0.00786969 0.00753923 0.00909252 0.00881759 0.00753923 0.00717725 0.00881759 0.00849198 0.00717725 0.0065224 0.00849198 0.00796841 0.0065224 0.00522644 0.00796841 0.00669465 0.00522644 0.00364955 0.00669465 0.00512369 0.00364955 0.00203769 0.00512369 0.0035265 0.00203769 0.000521345 0.0035265 0.00200571 0.000521345 -0.000579691 0.00200571 0.0006656 -0.000579691 -