# vtk DataFile Version 3.0
#This file was generated by the deal.II library on 2021/2/10 at 1:03:51
ASCII
DATASET UNSTRUCTURED_GRID

POINTS 14400 double
0 -0.5 0
0.0166667 -0.5 0
0 -0.483333 0
0.0166667 -0.483333 0
0.0166667 -0.5 0
0.0333333 -0.5 0
0.0166667 -0.483333 0
0.0333333 -0.483333 0
0.0333333 -0.5 0
0.05 -0.5 0
0.0333333 -0.483333 0
0.05 -0.483333 0
0.05 -0.5 0
0.0666667 -0.5 0
0.05 -0.483333 0
0.0666667 -0.483333 0
0.0666667 -0.5 0
0.0833333 -0.5 0
0.0666667 -0.483333 0
0.0833333 -0.483333 0
0.0833333 -0.5 0
0.1 -0.5 0
0.0833333 -0.483333 0
0.1 -0.483333 0
0.1 -0.5 0
0.116667 -0.5 0
0.1 -0.483333 0
0.116667 -0.483333 0
0.116667 -0.5 0
0.133333 -0.5 0
0.116667 -0.483333 0
0.133333 -0.483333 0
0.133333 -0.5 0
0.15 -0.5 0
0.133333 -0.483333 0
0.15 -0.483333 0
0.15 -0.5 0
0.166667 -0.5 0
0.15 -0.483333 0
0.166667 -0.483333 0
0.166667 -0.5 0
0.183333 -0.5 0
0.166667 -0.483333 0
0.183333 -0.483333 0
0.183333 -0.5 0
0.2 -0.5 0
0.183333 -0.483333 0
0.2 -0.483333 0
0.2 -0.5 0
0.216667 -0.5 0
0.2 -0.483333 0
0.216667 -0.483333 0
0.216667 -0.5 0
0.233333 -0.5 0
0.216667 -0.483333 0
0.233333 -0.483333 0
0.233333 -0.5 0
0.25 -0.5 0
0.233333 -0.483333 0
0.25 -0.483333 0
0.25 -0.5 0
0.266667 -0.5 0
0.25 -0.483333 0
0.266667 -0.483333 0
0.266667 -0.5 0
0.283333 -0.5 0
0.266667 -0.483333 0
0.283333 -0.483333 0
0.283333 -0.5 0
0.3 -0.5 0
0.283333 -0.483333 0
0.3 -0.483333 0
0.3 -0.5 0
0.316667 -0.5 0
0.3 -0.483333 0
0.316667 -0.483333 0
0.316667 -0.5 0
0.333333 -0.5 0
0.316667 -0.483333 0
0.333333 -0.483333 0
0.333333 -0.5 0
0.35 -0.5 0
0.333333 -0.483333 0
0.35 -0.483333 0
0.35 -0.5 0
0.366667 -0.5 0
0.35 -0.483333 0
0.366667 -0.483333 0
0.366667 -0.5 0
0.383333 -0.5 0
0.366667 -0.483333 0
0.383333 -0.483333 0
0.383333 -0.5 0
0.4 -0.5 0
0.383333 -0.483333 0
0.4 -0.483333 0
0.4 -0.5 0
0.416667 -0.5 0
0.4 -0.483333 0
0.416667 -0.483333 0
0.416667 -0.5 0
0.433333 -0.5 0
0.416667 -0.483333 0
0.433333 -0.483333 0
0.433333 -0.5 0
0.45 -0.5 0
0.433333 -0.483333 0
0.45 -0.483333 0
0.45 -0.5 0
0.466667 -0.5 0
0.45 -0.483333 0
0.466667 -0.483333 0
0.466667 -0.5 0
0.483333 -0.5 0
0.466667 -0.483333 0
0.483333 -0.483333 0
0.483333 -0.5 0
0.5 -0.5 0
0.483333 -0.483333 0
0.5 -0.483333 0
0.5 -0.5 0
0.516667 -0.5 0
0.5 -0.483333 0
0.516667 -0.483333 0
0.516667 -0.5 0
0.533333 -0.5 0
0.516667 -0.483333 0
0.533333 -0.483333 0
0.533333 -0.5 0
0.55 -0.5 0
0.533333 -0.483333 0
0.55 -0.483333 0
0.55 -0.5 0
0.566667 -0.5 0
0.55 -0.483333 0
0.566667 -0.483333 0
0.566667 -0.5 0
0.583333 -0.5 0
0.566667 -0.483333 0
0.583333 -0.483333 0
0.583333 -0.5 0
0.6 -0.5 0
0.583333 -0.483333 0
0.6 -0.483333 0
0.6 -0.5 0
0.616667 -0.5 0
0.6 -0.483333 0
0.616667 -0.483333 0
0.616667 -0.5 0
0.633333 -0.5 0
0.616667 -0.483333 0
0.633333 -0.483333 0
0.633333 -0.5 0
0.65 -0.5 0
0.633333 -0.483333 0
0.65 -0.483333 0
0.65 -0.5 0
0.666667 -0.5 0
0.65 -0.483333 0
0.666667 -0.483333 0
0.666667 -0.5 0
0.683333 -0.5 0
0.666667 -0.483333 0
0.683333 -0.483333 0
0.683333 -0.5 0
0.7 -0.5 0
0.683333 -0.483333 0
0.7 -0.483333 0
0.7 -0.5 0
0.716667 -0.5 0
0.7 -0.483333 0
0.716667 -0.483333 0
0.716667 -0.5 0
0.733333 -0.5 0
0.716667 -0.483333 0
0.733333 -0.483333 0
0.733333 -0.5 0
0.75 -0.5 0
0.733333 -0.483333 0
0.75 -0.483333 0
0.75 -0.5 0
0.766667 -0.5 0
0.75 -0.483333 0
0.766667 -0.483333 0
0.766667 -0.5 0
0.783333 -0.5 0
0.766667 -0.483333 0
0.783333 -0.483333 0
0.783333 -0.5 0
0.8 -0.5 0
0.783333 -0.483333 0
0.8 -0.483333 0
0.8 -0.5 0
0.816667 -0.5 0
0.8 -0.483333 0
0.816667 -0.483333 0
0.816667 -0.5 0
0.833333 -0.5 0
0.816667 -0.483333 0
0.833333 -0.483333 0
0.833333 -0.5 0
0.85 -0.5 0
0.833333 -0.483333 0
0.85 -0.483333 0
0.85 -0.5 0
0.866667 -0.5 0
0.85 -0.483333 0
0.866667 -0.483333 0
0.866667 -0.5 0
0.883333 -0.5 0
0.866667 -0.483333 0
0.883333 -0.483333 0
0.883333 -0.5 0
0.9 -0.5 0
0.883333 -0.483333 0
0.9 -0.483333 0
0.9 -0.5 0
0.916667 -0.5 0
0.9 -0.483333 0
0.916667 -0.483333 0
0.916667 -0.5 0
0.933333 -0.5 0
0.916667 -0.483333 0
0.933333 -0.483333 0
0.933333 -0.5 0
0.95 -0.5 0
0.933333 -0.483333 0
0.95 -0.483333 0
0.95 -0.5 0
0.966667 -0.5 0
0.95 -0.483333 0
0.966667 -0.483333 0
0.966667 -0.5 0
0.983333 -0.5 0
0.966667 -0.483333 0
0.983333 -0.483333 0
0.983333 -0.5 0
1 -0.5 0
0.983333 -0.483333 0
1 -0.483333 0
0 -0.483333 0
0.0166667 -0.483333 0
0 -0.466667 0
0.0166667 -0.466667 0
0.0166667 -0.483333 0
0.0333333 -0.483333 0
0.0166667 -0.466667 0
0.0333333 -0.466667 0
0.0333333 -0.483333 0
0.05 -0.483333 0
0.0333333 -0.466667 0
0.05 -0.466667 0
0.05 -0.483333 0
0.0666667 -0.483333 0
0.05 -0.466667 0
0.0666667 -0.466667 0
0.0666667 -0.483333 0
0.0833333 -0.483333 0
0.0666667 -0.466667 0
0.0833333 -0.466667 0
0.0833333 -0.483333 0
0.1 -0.483333 0
0.0833333 -0.466667 0
0.1 -0.466667 0
0.1 -0.483333 0
0.116667 -0.483333 0
0.1 -0.466667 0
0.116667 -0.466667 0
0.116667 -0.483333 0
0.133333 -0.483333 0
0.116667 -0.466667 0
0.133333 -0.466667 0
0.133333 -0.483333 0
0.15 -0.483333 0
0.133333 -0.466667 0
0.15 -0.466667 0
0.15 -0.483333 0
0.166667 -0.483333 0
0.15 -0.466667 0
0.166667 -0.466667 0
0.166667 -0.483333 0
0.183333 -0.483333 0
0.166667 -0.466667 0
0.183333 -0.466667 0
0.183333 -0.483333 0
0.2 -0.483333 0
0.183333 -0.466667 0
0.2 -0.466667 0
0.2 -0.483333 0
0.216667 -0.483333 0
0.2 -0.466667 0
0.216667 -0.466667 0
0.216667 -0.483333 0
0.233333 -0.483333 0
0.216667 -0.466667 0
0.233333 -0.466667 0
0.233333 -0.483333 0
0.25 -0.483333 0
0.233333 -0.466667 0
0.25 -0.466667 0
0.25 -0.483333 0
0.266667 -0.483333 0
0.25 -0.466667 0
0.266667 -0.466667 0
0.266667 -0.483333 0
0.283333 -0.483333 0
0.266667 -0.466667 0
0.283333 -0.466667 0
0.283333 -0.483333 0
0.3 -0.483333 0
0.283333 -0.466667 0
0.3 -0.466667 0
0.3 -0.483333 0
0.316667 -0.483333 0
0.3 -0.466667 0
0.316667 -0.466667 0
0.316667 -0.483333 0
0.333333 -0.483333 0
0.316667 -0.466667 0
0.333333 -0.466667 0
0.333333 -0.483333 0
0.35 -0.483333 0
0.333333 -0.466667 0
0.35 -0.466667 0
0.35 -0.483333 0
0.366667 -0.483333 0
0.35 -0.466667 0
0.366667 -0.466667 0
0.366667 -0.483333 0
0.383333 -0.483333 0
0.366667 -0.466667 0
0.383333 -0.466667 0
0.383333 -0.483333 0
0.4 -0.483333 0
0.383333 -0.466667 0
0.4 -0.466667 0
0.4 -0.483333 0
0.416667 -0.483333 0
0.4 -0.466667 0
0.416667 -0.466667 0
0.416667 -0.483333 0
0.433333 -0.483333 0
0.416667 -0.466667 0
0.433333 -0.466667 0
0.433333 -0.483333 0
0.45 -0.483333 0
0.433333 -0.466667 0
0.45 -0.466667 0
0.45 -0.483333 0
0.466667 -0.483333 0
0.45 -0.466667 0
0.466667 -0.466667 0
0.466667 -0.483333 0
0.483333 -0.483333 0
0.466667 -0.466667 0
0.483333 -0.466667 0
0.483333 -0.483333 0
0.5 -0.483333 0
0.483333 -0.466667 0
0.5 -0.466667 0
0.5 -0.483333 0
0.516667 -0.483333 0
0.5 -0.466667 0
0.516667 -0.466667 0
0.516667 -0.483333 0
0.533333 -0.483333 0
0.516667 -0.466667 0
0.533333 -0.466667 0
0.533333 -0.483333 0
0.55 -0.483333 0
0.533333 -0.466667 0
0.55 -0.466667 0
0.55 -0.483333 0
0.566667 -0.483333 0
0.55 -0.466667 0
0.566667 -0.466667 0
0.566667 -0.483333 0
0.583333 -0.483333 0
0.566667 -0.466667 0
0.583333 -0.466667 0
0.583333 -0.483333 0
0.6 -0.483333 0
0.583333 -0.466667 0
0.6 -0.466667 0
0.6 -0.483333 0
0.616667 -0.483333 0
0.6 -0.466667 0
0.616667 -0.466667 0
0.616667 -0.483333 0
0.633333 -0.483333 0
0.616667 -0.466667 0
0.633333 -0.466667 0
0.633333 -0.483333 0
0.65 -0.483333 0
0.633333 -0.466667 0
0.65 -0.466667 0
0.65 -0.483333 0
0.666667 -0.483333 0
0.65 -0.466667 0
0.666667 -0.466667 0
0.666667 -0.483333 0
0.683333 -0.483333 0
0.666667 -0.466667 0
0.683333 -0.466667 0
0.683333 -0.483333 0
0.7 -0.483333 0
0.683333 -0.466667 0
0.7 -0.466667 0
0.7 -0.483333 0
0.716667 -0.483333 0
0.7 -0.466667 0
0.716667 -0.466667 0
0.716667 -0.483333 0
0.733333 -0.483333 0
0.716667 -0.466667 0
0.733333 -0.466667 0
0.733333 -0.483333 0
0.75 -0.483333 0
0.733333 -0.466667 0
0.75 -0.466667 0
0.75 -0.483333 0
0.766667 -0.483333 0
0.75 -0.466667 0
0.766667 -0.466667 0
0.766667 -0.483333 0
0.783333 -0.483333 0
0.766667 -0.466667 0
0.783333 -0.466667 0
0.783333 -0.483333 0
0.8 -0.483333 0
0.783333 -0.466667 0
0.8 -0.466667 0
0.8 -0.483333 0
0.816667 -0.483333 0
0.8 -0.466667 0
0.816667 -0.466667 0
0.816667 -0.483333 0
0.833333 -0.483333 0
0.816667 -0.466667 0
0.833333 -0.466667 0
0.833333 -0.483333 0
0.85 -0.483333 0
0.833333 -0.466667 0
0.85 -0.466667 0
0.85 -0.483333 0
0.866667 -0.483333 0
0.85 -0.466667 0
0.866667 -0.466667 0
0.866667 -0.483333 0
0.883333 -0.483333 0
0.866667 -0.466667 0
0.883333 -0.466667 0
0.883333 -0.483333 0
0.9 -0.483333 0
0.883333 -0.466667 0
0.9 -0.466667 0
0.9 -0.483333 0
0.916667 -0.483333 0
0.9 -0.466667 0
0.916667 -0.466667 0
0.916667 -0.483333 0
0.933333 -0.483333 0
0.916667 -0.466667 0
0.933333 -0.466667 0
0.933333 -0.483333 0
0.95 -0.483333 0
0.933333 -0.466667 0
0.95 -0.466667 0
0.95 -0.483333 0
0.966667 -0.483333 0
0.95 -0.466667 0
0.966667 -0.466667 0
0.966667 -0.483333 0
0.983333 -0.483333 0
0.966667 -0.466667 0
0.983333 -0.466667 0
0.983333 -0.483333 0
1 -0.483333 0
0.983333 -0.466667 0
1 -0.466667 0
0 -0.466667 0
0.0166667 -0.466667 0
0 -0.45 0
0.0166667 -0.45 0
0.0166667 -0.466667 0
0.0333333 -0.466667 0
0.0166667 -0.45 0
0.0333333 -0.45 0
0.0333333 -0.466667 0
0.05 -0.466667 0
0.0333333 -0.45 0
0.05 -0.45 0
0.05 -0.466667 0
0.0666667 -0.466667 0
0.05 -0.45 0
0.0666667 -0.45 0
0.0666667 -0.466667 0
0.0833333 -0.466667 0
0.0666667 -0.45 0
0.0833333 -0.45 0
0.0833333 -0.466667 0
0.1 -0.466667 0
0.0833333 -0.45 0
0.1 -0.45 0
0.1 -0.466667 0
0.116667 -0.466667 0
0.1 -0.45 0
0.116667 -0.45 0
0.116667 -0.466667 0
0.133333 -0.466667 0
0.116667 -0.45 0
0.133333 -0.45 0
0.133333 -0.466667 0
0.15 -0.466667 0
0.133333 -0.45 0
0.15 -0.45 0
0.15 -0.466667 0
0.166667 -0.466667 0
0.15 -0.45 0
0.166667 -0.45 0
0.166667 -0.466667 0
0.183333 -0.466667 0
0.166667 -0.45 0
0.183333 -0.45 0
0.183333 -0.466667 0
0.2 -0.466667 0
0.183333 -0.45 0
0.2 -0.45 0
0.2 -0.466667 0
0.216667 -0.466667 0
0.2 -0.45 0
0.216667 -0.45 0
0.216667 -0.466667 0
0.233333 -0.466667 0
0.216667 -0.45 0
0.233333 -0.45 0
0.233333 -0.466667 0
0.25 -0.466667 0
0.233333 -0.45 0
0.25 -0.45 0
[...]
POINT_DATA 14400
SCALARS x1_displacement double 1
LOOKUP_TABLE default
0 -0.000659256 0 -0.000255505 -0.000659256 -0.00105639 -0.000255505 -0.000538451 -0.00105639 -0.00128309 -0.000538451 -0.000736944 -0.00128309 -0.00139769 -0.000736944 -0.000853576 -0.00139769 -0.00142303 -0.000853576 -0.000897756 -0.00142303 -0.00137423 -0.000897756 -0.000878446 -0.00137423 -0.00126175 -0.000878446 -0.00080308 -0.00126175 -0.00109361 -0.00080308 -0.000677799 -0.00109361 -0.000876252 -0.000677799 -0.000507774 -0.000876252 -0.00061499 -0.000507774 -0.00029743 -0.00061499 -0.000314337 -0.00029743 -5.06138e-05 -0.000314337 2.18269e-05 -5.06138e-05 0.000229295 2.18269e-05 0.000390119 0.000229295 0.000539303 0.000390119 0.000787567 0.000539303 0.000876736 0.000787567 0.00121154 0.000876736 0.0012392 0.00121154 0.00165971 0.0012392 0.00162454 0.00165971 0.00212998 0.00162454 0.0020308 0.00212998 0.00262049 0.0020308 0.0024562 0.00262049 0.00312953 0.0024562 0.00289912 0.00312953 0.00365556 0.00289912 0.00335807 0.00365556 0.00419717 0.00335807 0.00383163 0.00419717 0.00475299 0.00383163 0.00431847 0.00475299 0.00532175 0.00431847 0.00481731 0.00532175 0.00590217 0.00481731 0.00532687 0.00590217 0.00649295 0.00532687 0.00584587 0.00649295 0.00709276 0.00584587 0.00637298 0.00709276 0.00770015 0.00637298 0.00690679 0.00770015 0.00831356 0.00690679 0.00744582 0.00831356 0.00893127 0.00744582 0.00798844 0.00893127 0.00955137 0.00798844 0.00853288 0.00955137 0.0101717 0.00853288 0.00907721 0.0101717 0.01079 0.00907721 0.00961933 0.01079 0.0114037 0.00961933 0.010157 0.0114037 0.0120099 0.010157 0.0106877 0.0120099 0.0126057 0.0106877 0.011209 0.0126057 0.013188 0.011209 0.0117182 0.013188 0.0137537 0.0117182 0.0122125 0.0137537 0.0142997 0.0122125 0.0126895 0.0142997 0.0148232 0.0126895 0.0131466 0.0148232 0.0153217 0.0131466 0.0135816 0.0153217 0.0157934 0.0135816 0.0139926 0.0157934 0.016237 0.0139926 0.0143784 0.016237 0.0166524 0.0143784 0.014738 0.0166524 0.01704 0.014738 0.0150714 0.01704 0.0174014 0.0150714 0.0153787 0.0174014 0.0177381 0.0153787 0.0156604 0.0177381 0.0180517 0.0156604 0.0159168 0.0180517 0.0183439 0.0159168 0.0161477 0.0183439 0.0186166 0.0161477 0.0163527 0.0186166 0.0188724 0.0163527 0.0165314 0.0188724 0.0191149 0.0165314 0.016684 0.0191149 0.0193457 0.016684 0.0168098 0.0193457 0.019561 0.0168098 0.0169071 0.019561 0.0197444 0.0169071 0.0169746 0.0197444 0.0198666 0.0169746 0.0170017 0.0198666 0.0199052 0.0170017 0.016979 0.0199052 0.0198743 0.016979 0.0169225 0.0198743 0.0198227 0.0169225 0.0168682 0.0198227 0.0197925 0.0168682 0.0168422 0.0197925 0.0197866 0.0168422 0.0168418 0 -0.000255505 0 -0.000146386 -0.000255505 -0.000538451 -0.000146386 -0.000284204 -0.000538451 -0.000736944 -0.000284204 -0.00041033 -0.000736944 -0.000853576 -0.00041033 -0.000495329 -0.000853576 -0.000897756 -0.000495329 -0.000533073 -0.000897756 -0.000878446 -0.000533073 -0.000523677 -0.000878446 -0.00080308 -0.000523677 -0.000469628 -0.00080308 -0.000677799 -0.000469628 -0.000374061 -0.000677799 -0.000507774 -0.000374061 -0.000240185 -0.000507774 -0.00029743 -0.000240185 -7.10766e-05 -0.00029743 -5.06138e-05 -7.10766e-05 0.00013039 -5.06138e-05 0.000229295 0.00013039 0.000361554 0.000229295 0.000539303 0.000361554 0.000619968 0.000539303 0.000876736 0.000619968 0.000903383 0.000876736 0.0012392 0.000903383 0.00120973 0.0012392 0.00162454 0.00120973 0.00153712 0.00162454 0.0020308 0.00153712 0.00188381 0.0020308 0.0024562 0.00188381 0.00224818 0.0024562 0.00289912 0.00224818 0.00262874 0.00289912 0.00335807 0.00262874 0.00302411 0.00335807 0.00383163 0.00302411 0.00343296 0.00383163 0.00431847 0.00343296 0.00385404 0.00431847 0.00481731 0.00385404 0.00428615 0.00481731 0.00532687 0.00428615 0.00472808 0.00532687 0.00584587 0.00472808 0.00517862 0.00584587 0.00637298 0.00517862 0.00563653 0.00637298 0.00690679 0.00563653 0.00610052 0.00690679 0.00744582 0.00610052 0.00656923 0.00744582 0.00798844 0.00656923 0.00704117 0.00798844 0.00853288 0.00704117 0.00751477 0.00853288 0.00907721 0.00751477 0.0079883 0.00907721 0.00961933 0.0079883 0.00845992 0.00961933 0.010157 0.00845992 0.00892761 0.010157 0.0106877 0.00892761 0.00938923 0.0106877 0.011209 0.00938923 0.00984253 0.011209 0.0117182 0.00984253 0.0102851 0.0117182 0.0122125 0.0102851 0.0107147 0.0122125 0.0126895 0.0107147 0.0111286 0.0126895 0.0131466 0.0111286 0.0115247 0.0131466 0.0135816 0.0115247 0.0119007 0.0135816 0.0139926 0.0119007 0.0122544 0.0139926 0.0143784 0.0122544 0.0125843 0.0143784 0.014738 0.0125843 0.0128889 0.014738 0.0150714 0.0128889 0.0131675 0.0150714 0.0153787 0.0131675 0.0134198 0.0153787 0.0156604 0.0134198 0.0136457 0.0156604 0.0159168 0.0136457 0.0138448 0.0159168 0.0161477 0.0138448 0.0140152 0.0161477 0.0163527 0.0140152 0.0141535 0.0163527 0.0165314 0.0141535 0.0142565 0.0165314 0.016684 0.0142565 0.0143228 0.016684 0.0168098 0.0143228 0.0143534 0.0168098 0.0169071 0.0143534 0.0143469 0.0169071 0.0169746 0.0143469 0.0143043 0.0169746 0.0170017 0.0143043 0.0142301 0.0170017 0.016979 0.0142301 0.0141044 0.016979 0.0169225 0.0141044 0.0139627 0.0169225 0.0168682 0.0139627 0.01388 0.0168682 0.0168422 0.01388 0.0138603 0.0168422 0.0168418 0.0138603 0.0138789 0 -0.000146386 0 -9.00237e-05 -0.000146386 -0.000284204 -9.00237e-05 -0.000164671 -0.000284204 -0.00041033 -0.000164671 -0.00022954 -0.00041033 -0.000495329 -0.00022954 -0.000277434 -0.000495329 -0.000533073 -0.000277434 -0.000298329 -0.000533073 -0.000523677 -0.000298329 -0.000287879 -0.000523677 -0.000469628 -0.000287879 -0.000244787 -0.000469628 -0.000374061 -0.000244787 -0.000169461 -0.000374061 -0.000240185 -0.000169461 -6.315e-05 -0.000240185 -7.10766e-05 -6.315e-05 7.24951e-05 -7.10766e-05 0.00013039 7.24951e-05 0.000235656 0.00013039 0.000361554 0.000235656 0.000424476 0.000361554 0.000619968 0.000424476 0.000637127 0.000619968 0.000903383 0.000637127 0.000871844 0.000903383 0.00120973 0.000871844 0.00112695 0.00120973 0.00153712 0.00112695 0.00140087 0.00153712 0.00188381 0.00140087 0.00169211 0.00188381 0.00224818 0.00169211 0.00199927 0.00224818 0.00262874 0.00199927 0.00232106 0.00262874 0.00302411 0.00232106 0.00265622 0.00302411 0.00343296 0.00265622 0.00300361 0.00343296 0.00385404 0.00300361 0.00336209 0.00385404 0.00428615 0.00336209 0.00373058 0.00428615 0.00472808 0.00373058 0.004108 0.00472808 0.00517862 0.004108 0.00449329 0.00517862 0.00563653 0.00449329 0.00488536 0.00563653 0.00610052 0.00488536 0.00528306 0.00610052 0.00656923 0.00528306 0.0056852 0.00656923 0.00704117 0.0056852 0.0060905 0.00704117 0.00751477 0.0060905 0.00649758 0.00751477 0.0079883 0.00649758 0.00690496 0.0079883 0.00845992 0.00690496 0.007311 0.00845992 0.00892761 0.007311 0.00771395 0.00892761 0.00938923 0.00771395 0.00811191 0.00938923 0.00984253 0.00811191 0.00850284 0.00984253 0.0102851 0.00850284 0.00888455 0.0102851 0.0107147 0.00888455 0.00925478 0.0107147 0.0111286 0.00925478 0.00961115 0.0111286 0.0115247 0.00961115 0.00995124 0.0115247 0.0119007 0.00995124 0.0102726 0.0119007 0.0122544 0.0102726 0.010573 0.0122544 0.0125843 0.010573 0.0108501 0.0125843 0.0128889 0.0108501 0.0111022 0.0128889 0.0131675 0.0111022 0.011328 0.0131675 0.0134198 0.011328 0.0115268 0.0134198 0.0136457 0.0115268 0.011699 0.0136457 0.0138448 0.011699 0.0118443 0.0138448 0.0140152 0.0118443 0.0119601 0.0140152 0.0141535 0.0119601 0.0120399 0.0141535 0.0142565 0.0120399 0.012076 0.0142565 0.0143228 0.012076 0.0120671 0.0143228 0.0143534 0.0120671 0.0120122 0.0143534 0.0143469 0.0120122 0.0119114 0.0143469 0.0143043 0.0119114 0.0117506 0.0143043 0.0142301 0.0117506 0.011433 0.0142301 0.0141044 0.011433 0.0110927 0.0141044 0.0139627 0.0110927 0.0109318 0.0139627 0.01388 0.0109318 0.0108815 0.01388 0.0138603 0.0108815 0.0108887 0.0138603 0.0138789 0.0108887 0.0109352 0 -9.00237e-05 0 -6.2677e-05 -9.00237e-05 -0.000164671 -6.2677e-05 -0.000104628 -0.000164671 -0.00022954 -0.000104628 -0.000136007 -0.00022954 -0.000277434 -0.000136007 -0.000156515 -0.000277434 -0.000298329 -0.000156515 -0.000161745 -0.000298329 -0.000287879 -0.000161745 -0.00014718 -0.000287879 -0.000244787 -0.00014718 -0.000110143 -0.000244787 -0.000169461 -0.000110143 -4.94439e-05 -0.000169461 -6.315e-05 -4.94439e-05 3.50796e-05 -6.315e-05 7.24951e-05 3.50796e-05 0.000142936 7.24951e-05 0.000235656 0.000142936 0.000273238 0.000235656 0.000424476 0.000273238 0.000424875 0.000424476 0.000637127 0.000424875 0.000596617 0.000637127 0.000871844 0.000596617 0.000787188 0.000871844 0.00112695 0.000787188 0.000995311 0.00112695 0.00140087 0.000995311 0.00121974 0.00140087 0.00169211 0.00121974 0.00145926 0.00169211 0.00199927 0.00145926 0.00171274 0.00199927 0.00232106 0.00171274 0.00197906 0.00232106 0.00265622 0.00197906 0.00225721 0.00265622 0.00300361 0.00225721 0.00254618 0.00300361 0.00336209 0.00254618 0.00284503 0.00336209 0.00373058 0.00284503 0.00315285 0.00373058 0.004108 0.00315285 0.00346874 0.004108 0.00449329 0.00346874 0.00379179 0.00449329 0.00488536 0.00379179 0.00412111 0.00488536 0.00528306 0.00412111 0.00445575 0.00528306 0.0056852 0.00445575 0.00479473 0.0056852 0.0060905 0.00479473 0.00513699 0.0060905 0.00649758 0.00513699 0.00548138 0.00649758 0.00690496 0.00548138 0.00582664 0.00690496 0.007311 0.00582664 0.00617138 0.007311 0.00771395 0.00617138 0.00651408 0.00771395 0.00811191 0.00651408 0.00685305 0.00811191 0.00850284 0.00685305 0.00718641 0.00850284 0.00888455 0.00718641 0.00751212 0.00888455 0.00925478 0.00751212 0.00782799 0.00925478 0.00961115 0.00782799 0.00813162 0.00961115 0.00995124 0.00813162 0.00842049 0.00995124 0.0102726 0.00842049 0.00869199 0.0102726 0.010573 0.00869199 0.00894343 0.010573 0.0108501 0.00894343 0.00917223 0.0108501 0.0111022 0.00917223 0.009376 0.0111022 0.011328 0.009376 0.00955289 0.011328 0.0115268 0.00955289 0.00970196 0.0115268 0.011699 0.00970196 0.0098238 0.011699 0.0118443 0.0098238 0.00992046 0.0118443 0.0119601 0.00992046 0.00999128 0.0119601 0.0120399 0.00999128 0.0100279 0.0120399 0.012076 0.0100279 0.0100153 0.012076 0.0120671 0.0100153 0.00994712 0.0120671 0.0120122 0.00994712 0.00983565 0.0120122 0.0119114 0.00983565 0.00961088 0.0119114 0.0117506 0.00961088 0.00909908 0.0117506 0.011433 0.00909908 0.00833228 0.011433 0.0110927 0.00833228 0.00796028 0.0110927 0.0109318 0.00796028 0.00792115 0.0109318 0.0108815 0.00792115 0.00794735 0.0108815 0.0108887 0.00794735 0.00799196 0.0108887 0.0109352 0.00799196 0.0080672 0 -6.2677e-05 0 -5.03722e-05 -6.2677e-05 -0.000104628 -5.03722e-05 -7.85125e-05 -0.000104628 -0.000136007 -7.85125e-05 -9.39909e-05 -0.000136007 -0.000156515 -9.39909e-05 -0.000100199 -0.000156515 -0.000161745 -0.000100199 -9.62026e-05 -0.000161745 -0.00014718 -9.62026e-05 -7.95264e-05 -0.00014718 -0.000110143 -7.95264e-05 -4.77833e-05 -0.000110143 -4.94439e-05 -4.77833e-05 6.51328e-07 -4.94439e-05 3.50796e-05 6.51328e-07 6.66334e-05 3.50796e-05 0.000142936 6.66334e-05 0.000150398 0.000142936 0.000273238 0.000150398 0.000251731 0.000273238 0.000424875 0.000251731 0.000370107 0.000424875 0.000596617 0.000370107 0.000504802 0.000596617 0.000787188 0.000504802 0.000654972 0.000787188 0.000995311 0.000654972 0.000819713 0.000995311 0.00121974 0.000819713 0.000998094 0.00121974 0.00145926 0.000998094 0.0011892 0.00145926 0.00171274 0.0011892 0.00139212 0.00171274 0.00197906 0.00139212 0.001606 0.00197906 0.00225721 0.001606 0.00183002 0.00225721 0.00254618 0.00183002 0.00206339 0.00254618 0.00284503 0.00206339 0.00230536 0.00284503 0.00315285 0.00230536 0.00255523 0.00315285 0.00346874 0.00255523 0.00281229 0.00346874 0.00379179 0.00281229 0.00307585 0.00379179 0.00412111 0.00307585 0.00334523 0.00412111 0.00445575 0.00334523 0.00361971 0.00445575 0.00479473 0.00361971 0.00389854 0.00479473 0.00513699 0.00389854 0.00418089 0.00513699 0.00548138 0.00418089 0.00446588 0.00548138 0.00582664 0.00446588 0.00475249 0.00582664 0.00617138 0.00475249 0.00503958 0.00617138 0.00651408 0.00503958 0.00532584 0.00651408 0.00685305 0.00532584 0.00560977 0.00685305 0.00718641 0.00560977 0.00588968 0.00718641 0.00751212 0.00588968 0.00616364 0.00751212 0.00782799 0.00616364 0.0064295 0.00782799 0.00813162 0.0064295 0.00668486 0.00813162 0.00842049 0.00668486 0.00692711 0.00842049 0.00869199 0.00692711 0.00715346 0.00869199 0.00894343 0.00715346 0.00736097 0.00894343 0.00917223 0.00736097 0.00754669 0.00917223 0.009376 0.00754669 0.0077078 0.009376 0.00955289 0.0077078 0.00784185 0.00955289 0.00970196 0.00784185 0.00794716 0.00970196 0.0098238 0.00794716 0.00802382 0.0098238 0.00992046 0.00802382 0.00807536 0.00992046 0.00999128 0.00807536 0.0081095 0.00999128 0.0100279 0.0081095 0.00811904 0.0100279 0.0100153 0.00811904 0.00808463 0.0100153 0.00994712 0.00808463 0.00799276 0.00994712 0.00983565 0.00799276 0.00768177 0.00983565 0.00961088 0.00768177 0.00694707 0.00961088 0.00909908 0.00694707 0.0058908 0.00909908 0.00833228 0.0058908 0.00517323 0.00833228 0.00796028 0.00517323 0.00506959 0.00796028 0.00792115 0.00506959 0.00511877 0.00792115 0.00794735 0.00511877 0.00517414 0.00794735 0.00799196 0.00517414 0.00523691 0.00799196 0.0080672 0.00523691 0.00532877 0 -5.03722e-05 0 -4.76166e-05 -5.03722e-05 -7.85125e-05 -4.76166e-05 -7.30746e-05 -7.85125e-05 -9.39909e-05 -7.30746e-05 -8.46947e-05 -9.39909e-05 -0.000100199 -8.46947e-05 -8.69858e-05 -0.000100199 -9.62026e-05 -8.69858e-05 -8.11873e-05 -9.62026e-05 -7.95264e-05 -8.11873e-05 -6.65977e-05 -7.95264e-05 -4.77833e-05 -6.65977e-05 -4.18334e-05 -4.77833e-05 6.51328e-07 -4.18334e-05 -5.56482e-06 6.51328e-07 6.66334e-05 -5.56482e-06 4.3168e-05 6.66334e-05 0.000150398 4.3168e-05 0.0001049 0.000150398 0.000251731 0.0001049 0.000179792 0.000251731 0.000370107 0.000179792 0.000267703 0.000370107 0.000504802 0.000267703 0.000368281 0.000504802 0.000654972 0.000368281 0.000481022 0.000654972 0.000819713 0.000481022 0.000605333 0.000819713 0.000998094 0.000605333 0.000740569 0.000998094 0.0011892 0.000740569 0.000886071 0.0011892 0.00139212 0.000886071 0.00104119 0.00139212 0.001606 0.00104119 0.00120528 0.001606 0.00183002 0.00120528 0.00137775 0.00183002 0.00206339 0.00137775 0.00155804 0.00206339 0.00230536 0.00155804 0.00174561 0.00230536 0.00255523 0.00174561 0.00193996 0.00255523 0.00281229 0.00193996 0.00214061 0.00281229 0.00307585 0.00214061 0.00234712 0.00307585 0.00334523 0.00234712 0.00255903 0.00334523 0.00361971 0.00255903 0.00277586 0.00361971 0.00389854 0.00277586 0.00299712 0.00389854 0.00418089 0.00299712 0.00322225 0.00418089 0.00446588 0.00322225 0.00345062 0.00446588 0.00475249 0.00345062 0.00368147 0.00475249 0.00503958 0.00368147 0.00391393 0.00503958 0.00532584 0.00391393 0.0041469 0.00532584 0.00560977 0.0041469 0.00437911 0.00560977 0.00588968 0.00437911 0.00460903 0.00588968 0.00616364 0.00460903 0.00483485 0.00616364 0.0064295 0.00483485 0.00505448 0.0064295 0.00668486 0.00505448 0.00526557 0.00668486 0.00692711 0.00526557 0.00546547 0.00692711 0.00715346 0.00546547 0.00565129 0.00715346 0.00736097 0.00565129 0.00581996 0.00736097 0.00754669 0.00581996 0.00596837 0.00754669 0.0077078 0.00596837 0.00609352 0.0077078 0.00784185 0.00609352 0.00619272 0.00784185 0.00794716 0.00619272 0.00626375 0.00794716 0.00802382 0.00626375 0.0063052 0.00802382 0.00807536 0.0063052 0.00631807 0.00807536 0.0081095 0.00631807 0.0063098 0.0081095 0.00811904 0.0063098 0.00629339 0.00811904 0.00808463 0.00629339 0.00621317 0.00808463 0.00799276 0.00621317 0.00584053 0.00799276 0.00768177 0.00584053 0.00487731 0.00768177 0.00694707 0.00487731 0.00358877 0.00694707 0.0058908 0.00358877 0.0027039 0.0058908 0.00517323 0.0027039 0.00250997 0.00517323 0.00506959 0.00250997 0.00253724 0.00506959 0.00511877 0.00253724 0.00256397 0.00511877 0.00517414 0.00256397 0.00260104 0.00517414 0.00523691 0.00260104 0.0026566 0.00523691 0.00532877 0.0026566 0.00274828 0 -4.76166e-05 0 -5.12713e-05 -4.76166e-05 -7.30746e-05 -5.12713e-05 -8.13218e-05 -7.30746e-05 -8.46947e-05 -8.13218e-05 -9.70956e-05 -8.46947e-05 -8.69858e-05 -9.70956e-05 -0.00010324 -8.69858e-05 -8.11873e-05 -0.00010324 -0.000102061 -8.11873e-05 -6.65977e-05 -0.000102061 -9.41366e-05 -6.65977e-05 -4.18334e-05 -9.41366e-05 -7.90832e-05 -4.18334e-05 -5.56482e-06 -7.90832e-05 -5.61724e-05 -5.56482e-06 4.3168e-05 -5.61724e-05 -2.46979e-05 4.3168e-05 0.0001049 -2.46979e-05 1.58537e-05 0.0001049 0.000179792 1.58537e-05 6.57571e-05 0.000179792 0.000267703 6.57571e-05 0.000125063 0.000267703 0.000368281 0.000125063 0.000193641 0.000368281 0.000481022 0.000193641 0.000271222 0.000481022 0.000605333 0.000271222 0.000357451 0.000605333 0.000740569 0.000357451 0.000451916 0.000740569 0.000886071 0.000451916 0.000554184 0.000886071 0.00104119 0.000554184 0.000663826 0.00104119 0.00120528 0.000663826 0.000780426 0.00120528 0.00137775 0.000780426 0.000903602 0.00137775 0.00155804 0.000903602 0.00103301 0.00155804 0.00174561 0.00103301 0.00116833 0.00174561 0.00193996 0.00116833 0.00130929 0.00193996 0.00214061 0.00130929 0.00145566 0.00214061 0.00234712 0.00145566 0.00160722 0.00234712 0.00255903 0.00160722 0.00176376 0.00255903 0.00277586 0.00176376 0.00192506 0.00277586 0.00299712 0.00192506 0.0020909 0.00299712 0.00322225 0.0020909 0.002261 0.00322225 0.00345062 0.002261 0.002435 0.00345062 0.00368147 0.002435 0.00261243 0.00368147 0.00391393 0.00261243 0.00279266 0.00391393 0.0041469 0.00279266 0.00297488 0.0041469 0.00437911 0.00297488 0.00315802 0.00437911 0.00460903 0.00315802 0.00334073 0.00460903 0.00483485 0.00334073 0.00352136 0.00483485 0.00505448 0.00352136 0.00369793 0.00505448 0.00526557 0.00369793 0.00386815 0.00526557 0.00546547 0.00386815 0.00402941 0.00546547 0.00565129 0.00402941 0.00417884 0.00565129 0.00581996 0.00417884 0.00431339 0.00581996 0.00596837 0.00431339 0.00442999 0.00596837 0.00609352 0.00442999 0.00452586 0.00609352 0.00619272 0.00452586 0.00459887 0.00619272 0.00626375 0.00459887 0.00464776 0.00626375 0.0063052 0.00464776 0.00467221 0.0063052 0.00631807 0.00467221 0.00467334 0.00631807 0.0063098 0.00467334 0.00464691 0.0063098 0.00629339 0.00464691 0.00443673 0.00629339 0.00621317 0.00443673 0.00387581 0.00621317 0.00584053 0.00387581 0.00280996 0.00584053 0.00487731 0.00280996 0.00139262 0.00487731 0.00358877 0.00139262 0.000439763 0.00358877 0.0027039 0.000439763 0.000206733 0.0027039 0.00250997 0.000206733 0.000211508 0.00250997 0.00253724 0.000211508 0.000202439 0.00253724 0.00256397 0.000202439 0.000193321 0.00256397 0.00260104 0.000193321 0.000204035 0.00260104 0.0026566 0.000204035 0.000242524 0.0026566 0.00274828 0.000242524 0.000321834 0 -5.12713e-05 0 -5.9469e-05 -5.12713e-05 -8.13218e-05 -5.9469e-05 -9.90453e-05 -8.13218e-05 -9.70956e-05 -9.90453e-05 -0.000124453 -9.70956e-05 -0.00010324 -0.000124453 -0.000140044 -0.00010324 -0.000102061 -0.000140044 -0.000148567 -0.000102061 -9.41366e-05 -0.000148567 -0.000151393 -9.41366e-05 -7.90832e-05 -0.000151393 -0.000148945 -7.90832e-05 -5.61724e-05 -0.000148945 -0.000141128 -5.61724e-05 -2.46979e-05 -0.000141128 -0.000127648 -2.46979e-05 1.58537e-05 -0.000127648 -0.000108209 1.58537e-05 6.57571e-05 -0.000108209 -8.26104e-05 6.57571e-05 0.000125063 -8.26104e-05 -5.07742e-05 0.000125063 0.000193641 -5.07742e-05 -1.27406e-05 0.000193641 0.000271222 -1.27406e-05 3.13559e-05 0.000271222 0.000357451 3.13559e-05 8.13159e-05 0.000357451 0.000451916 8.13159e-05 0.000136904 0.000451916 0.000554184 0.000136904 0.000197872 0.000554184 0.000663826 0.000197872 0.000263982 0.000663826 0.000780426 0.000263982 0.00033502 0.000780426 0.000903602 0.00033502 0.000410809 0.000903602 0.00103301 0.000410809 0.00049121 0.00103301 0.00116833 0.00049121 0.000576133 0.00116833 0.00130929 0.000576133 0.000665531 0.00130929 0.00145566 0.000665531 0.000759397 0.00145566 0.00160722 0.000759397 0.000857758 0.00160722 0.00176376 0.000857758 0.000960663 0.00176376 0.00192506 0.000960663 0.00106817 0.00192506 0.0020909 0.00106817 0.00118031 0.0020909 0.002261 0.00118031 0.00129709 0.002261 0.002435 0.00129709 0.00141845 0.002435 0.00261243 0.00141845 0.0015442 0.00261243 0.0