# vtk DataFile Version 3.0
#This file was generated by the deal.II library on 2021/2/9 at 22:38:25
ASCII
DATASET UNSTRUCTURED_GRID

POINTS 14400 double
0 -0.5 0
0.0166667 -0.5 0
0 -0.483333 0
0.0166667 -0.483333 0
0.0166667 -0.5 0
0.0333333 -0.5 0
0.0166667 -0.483333 0
0.0333333 -0.483333 0
0.0333333 -0.5 0
0.05 -0.5 0
0.0333333 -0.483333 0
0.05 -0.483333 0
0.05 -0.5 0
0.0666667 -0.5 0
0.05 -0.483333 0
0.0666667 -0.483333 0
0.0666667 -0.5 0
0.0833333 -0.5 0
0.0666667 -0.483333 0
0.0833333 -0.483333 0
0.0833333 -0.5 0
0.1 -0.5 0
0.0833333 -0.483333 0
0.1 -0.483333 0
0.1 -0.5 0
0.116667 -0.5 0
0.1 -0.483333 0
0.116667 -0.483333 0
0.116667 -0.5 0
0.133333 -0.5 0
0.116667 -0.483333 0
0.133333 -0.483333 0
0.133333 -0.5 0
0.15 -0.5 0
0.133333 -0.483333 0
0.15 -0.483333 0
0.15 -0.5 0
0.166667 -0.5 0
0.15 -0.483333 0
0.166667 -0.483333 0
0.166667 -0.5 0
0.183333 -0.5 0
0.166667 -0.483333 0
0.183333 -0.483333 0
0.183333 -0.5 0
0.2 -0.5 0
0.183333 -0.483333 0
0.2 -0.483333 0
0.2 -0.5 0
0.216667 -0.5 0
0.2 -0.483333 0
0.216667 -0.483333 0
0.216667 -0.5 0
0.233333 -0.5 0
0.216667 -0.483333 0
0.233333 -0.483333 0
0.233333 -0.5 0
0.25 -0.5 0
0.233333 -0.483333 0
0.25 -0.483333 0
0.25 -0.5 0
0.266667 -0.5 0
0.25 -0.483333 0
0.266667 -0.483333 0
0.266667 -0.5 0
0.283333 -0.5 0
0.266667 -0.483333 0
0.283333 -0.483333 0
0.283333 -0.5 0
0.3 -0.5 0
0.283333 -0.483333 0
0.3 -0.483333 0
0.3 -0.5 0
0.316667 -0.5 0
0.3 -0.483333 0
0.316667 -0.483333 0
0.316667 -0.5 0
0.333333 -0.5 0
0.316667 -0.483333 0
0.333333 -0.483333 0
0.333333 -0.5 0
0.35 -0.5 0
0.333333 -0.483333 0
0.35 -0.483333 0
0.35 -0.5 0
0.366667 -0.5 0
0.35 -0.483333 0
0.366667 -0.483333 0
0.366667 -0.5 0
0.383333 -0.5 0
0.366667 -0.483333 0
0.383333 -0.483333 0
0.383333 -0.5 0
0.4 -0.5 0
0.383333 -0.483333 0
0.4 -0.483333 0
0.4 -0.5 0
0.416667 -0.5 0
0.4 -0.483333 0
0.416667 -0.483333 0
0.416667 -0.5 0
0.433333 -0.5 0
0.416667 -0.483333 0
0.433333 -0.483333 0
0.433333 -0.5 0
0.45 -0.5 0
0.433333 -0.483333 0
0.45 -0.483333 0
0.45 -0.5 0
0.466667 -0.5 0
0.45 -0.483333 0
0.466667 -0.483333 0
0.466667 -0.5 0
0.483333 -0.5 0
0.466667 -0.483333 0
0.483333 -0.483333 0
0.483333 -0.5 0
0.5 -0.5 0
0.483333 -0.483333 0
0.5 -0.483333 0
0.5 -0.5 0
0.516667 -0.5 0
0.5 -0.483333 0
0.516667 -0.483333 0
0.516667 -0.5 0
0.533333 -0.5 0
0.516667 -0.483333 0
0.533333 -0.483333 0
0.533333 -0.5 0
0.55 -0.5 0
0.533333 -0.483333 0
0.55 -0.483333 0
0.55 -0.5 0
0.566667 -0.5 0
0.55 -0.483333 0
0.566667 -0.483333 0
0.566667 -0.5 0
0.583333 -0.5 0
0.566667 -0.483333 0
0.583333 -0.483333 0
0.583333 -0.5 0
0.6 -0.5 0
0.583333 -0.483333 0
0.6 -0.483333 0
0.6 -0.5 0
0.616667 -0.5 0
0.6 -0.483333 0
0.616667 -0.483333 0
0.616667 -0.5 0
0.633333 -0.5 0
0.616667 -0.483333 0
0.633333 -0.483333 0
0.633333 -0.5 0
0.65 -0.5 0
0.633333 -0.483333 0
0.65 -0.483333 0
0.65 -0.5 0
0.666667 -0.5 0
0.65 -0.483333 0
0.666667 -0.483333 0
0.666667 -0.5 0
0.683333 -0.5 0
0.666667 -0.483333 0
0.683333 -0.483333 0
0.683333 -0.5 0
0.7 -0.5 0
0.683333 -0.483333 0
0.7 -0.483333 0
0.7 -0.5 0
0.716667 -0.5 0
0.7 -0.483333 0
0.716667 -0.483333 0
0.716667 -0.5 0
0.733333 -0.5 0
0.716667 -0.483333 0
0.733333 -0.483333 0
0.733333 -0.5 0
0.75 -0.5 0
0.733333 -0.483333 0
0.75 -0.483333 0
0.75 -0.5 0
0.766667 -0.5 0
0.75 -0.483333 0
0.766667 -0.483333 0
0.766667 -0.5 0
0.783333 -0.5 0
0.766667 -0.483333 0
0.783333 -0.483333 0
0.783333 -0.5 0
0.8 -0.5 0
0.783333 -0.483333 0
0.8 -0.483333 0
0.8 -0.5 0
0.816667 -0.5 0
0.8 -0.483333 0
0.816667 -0.483333 0
0.816667 -0.5 0
0.833333 -0.5 0
0.816667 -0.483333 0
0.833333 -0.483333 0
0.833333 -0.5 0
0.85 -0.5 0
0.833333 -0.483333 0
0.85 -0.483333 0
0.85 -0.5 0
0.866667 -0.5 0
0.85 -0.483333 0
0.866667 -0.483333 0
0.866667 -0.5 0
0.883333 -0.5 0
0.866667 -0.483333 0
0.883333 -0.483333 0
0.883333 -0.5 0
0.9 -0.5 0
0.883333 -0.483333 0
0.9 -0.483333 0
0.9 -0.5 0
0.916667 -0.5 0
0.9 -0.483333 0
0.916667 -0.483333 0
0.916667 -0.5 0
0.933333 -0.5 0
0.916667 -0.483333 0
0.933333 -0.483333 0
0.933333 -0.5 0
0.95 -0.5 0
0.933333 -0.483333 0
0.95 -0.483333 0
0.95 -0.5 0
0.966667 -0.5 0
0.95 -0.483333 0
0.966667 -0.483333 0
0.966667 -0.5 0
0.983333 -0.5 0
0.966667 -0.483333 0
0.983333 -0.483333 0
0.983333 -0.5 0
1 -0.5 0
0.983333 -0.483333 0
1 -0.483333 0
0 -0.483333 0
0.0166667 -0.483333 0
0 -0.466667 0
0.0166667 -0.466667 0
0.0166667 -0.483333 0
0.0333333 -0.483333 0
0.0166667 -0.466667 0
0.0333333 -0.466667 0
0.0333333 -0.483333 0
0.05 -0.483333 0
0.0333333 -0.466667 0
0.05 -0.466667 0
0.05 -0.483333 0
0.0666667 -0.483333 0
0.05 -0.466667 0
0.0666667 -0.466667 0
0.0666667 -0.483333 0
0.0833333 -0.483333 0
0.0666667 -0.466667 0
0.0833333 -0.466667 0
0.0833333 -0.483333 0
0.1 -0.483333 0
0.0833333 -0.466667 0
0.1 -0.466667 0
0.1 -0.483333 0
0.116667 -0.483333 0
0.1 -0.466667 0
0.116667 -0.466667 0
0.116667 -0.483333 0
0.133333 -0.483333 0
0.116667 -0.466667 0
0.133333 -0.466667 0
0.133333 -0.483333 0
0.15 -0.483333 0
0.133333 -0.466667 0
0.15 -0.466667 0
0.15 -0.483333 0
0.166667 -0.483333 0
0.15 -0.466667 0
0.166667 -0.466667 0
0.166667 -0.483333 0
0.183333 -0.483333 0
0.166667 -0.466667 0
0.183333 -0.466667 0
0.183333 -0.483333 0
0.2 -0.483333 0
0.183333 -0.466667 0
0.2 -0.466667 0
0.2 -0.483333 0
0.216667 -0.483333 0
0.2 -0.466667 0
0.216667 -0.466667 0
0.216667 -0.483333 0
0.233333 -0.483333 0
0.216667 -0.466667 0
0.233333 -0.466667 0
0.233333 -0.483333 0
0.25 -0.483333 0
0.233333 -0.466667 0
0.25 -0.466667 0
0.25 -0.483333 0
0.266667 -0.483333 0
0.25 -0.466667 0
0.266667 -0.466667 0
0.266667 -0.483333 0
0.283333 -0.483333 0
0.266667 -0.466667 0
0.283333 -0.466667 0
0.283333 -0.483333 0
0.3 -0.483333 0
0.283333 -0.466667 0
0.3 -0.466667 0
0.3 -0.483333 0
0.316667 -0.483333 0
0.3 -0.466667 0
0.316667 -0.466667 0
0.316667 -0.483333 0
0.333333 -0.483333 0
0.316667 -0.466667 0
0.333333 -0.466667 0
0.333333 -0.483333 0
0.35 -0.483333 0
0.333333 -0.466667 0
0.35 -0.466667 0
0.35 -0.483333 0
0.366667 -0.483333 0
0.35 -0.466667 0
0.366667 -0.466667 0
0.366667 -0.483333 0
0.383333 -0.483333 0
0.366667 -0.466667 0
0.383333 -0.466667 0
0.383333 -0.483333 0
0.4 -0.483333 0
0.383333 -0.466667 0
0.4 -0.466667 0
0.4 -0.483333 0
0.416667 -0.483333 0
0.4 -0.466667 0
0.416667 -0.466667 0
0.416667 -0.483333 0
0.433333 -0.483333 0
0.416667 -0.466667 0
0.433333 -0.466667 0
0.433333 -0.483333 0
0.45 -0.483333 0
0.433333 -0.466667 0
0.45 -0.466667 0
0.45 -0.483333 0
0.466667 -0.483333 0
0.45 -0.466667 0
0.466667 -0.466667 0
0.466667 -0.483333 0
0.483333 -0.483333 0
0.466667 -0.466667 0
0.483333 -0.466667 0
0.483333 -0.483333 0
0.5 -0.483333 0
0.483333 -0.466667 0
0.5 -0.466667 0
0.5 -0.483333 0
0.516667 -0.483333 0
0.5 -0.466667 0
0.516667 -0.466667 0
0.516667 -0.483333 0
0.533333 -0.483333 0
0.516667 -0.466667 0
0.533333 -0.466667 0
0.533333 -0.483333 0
0.55 -0.483333 0
0.533333 -0.466667 0
0.55 -0.466667 0
0.55 -0.483333 0
0.566667 -0.483333 0
0.55 -0.466667 0
0.566667 -0.466667 0
0.566667 -0.483333 0
0.583333 -0.483333 0
0.566667 -0.466667 0
0.583333 -0.466667 0
0.583333 -0.483333 0
0.6 -0.483333 0
0.583333 -0.466667 0
0.6 -0.466667 0
0.6 -0.483333 0
0.616667 -0.483333 0
0.6 -0.466667 0
0.616667 -0.466667 0
0.616667 -0.483333 0
0.633333 -0.483333 0
0.616667 -0.466667 0
0.633333 -0.466667 0
0.633333 -0.483333 0
0.65 -0.483333 0
0.633333 -0.466667 0
0.65 -0.466667 0
0.65 -0.483333 0
0.666667 -0.483333 0
0.65 -0.466667 0
0.666667 -0.466667 0
0.666667 -0.483333 0
0.683333 -0.483333 0
0.666667 -0.466667 0
0.683333 -0.466667 0
0.683333 -0.483333 0
0.7 -0.483333 0
0.683333 -0.466667 0
0.7 -0.466667 0
0.7 -0.483333 0
0.716667 -0.483333 0
0.7 -0.466667 0
0.716667 -0.466667 0
0.716667 -0.483333 0
0.733333 -0.483333 0
0.716667 -0.466667 0
0.733333 -0.466667 0
0.733333 -0.483333 0
0.75 -0.483333 0
0.733333 -0.466667 0
0.75 -0.466667 0
0.75 -0.483333 0
0.766667 -0.483333 0
0.75 -0.466667 0
0.766667 -0.466667 0
0.766667 -0.483333 0
0.783333 -0.483333 0
0.766667 -0.466667 0
0.783333 -0.466667 0
0.783333 -0.483333 0
0.8 -0.483333 0
0.783333 -0.466667 0
0.8 -0.466667 0
0.8 -0.483333 0
0.816667 -0.483333 0
0.8 -0.466667 0
0.816667 -0.466667 0
0.816667 -0.483333 0
0.833333 -0.483333 0
0.816667 -0.466667 0
0.833333 -0.466667 0
0.833333 -0.483333 0
0.85 -0.483333 0
0.833333 -0.466667 0
0.85 -0.466667 0
0.85 -0.483333 0
0.866667 -0.483333 0
0.85 -0.466667 0
0.866667 -0.466667 0
0.866667 -0.483333 0
0.883333 -0.483333 0
0.866667 -0.466667 0
0.883333 -0.466667 0
0.883333 -0.483333 0
0.9 -0.483333 0
0.883333 -0.466667 0
0.9 -0.466667 0
0.9 -0.483333 0
0.916667 -0.483333 0
0.9 -0.466667 0
0.916667 -0.466667 0
0.916667 -0.483333 0
0.933333 -0.483333 0
0.916667 -0.466667 0
0.933333 -0.466667 0
0.933333 -0.483333 0
0.95 -0.483333 0
0.933333 -0.466667 0
0.95 -0.466667 0
0.95 -0.483333 0
0.966667 -0.483333 0
0.95 -0.466667 0
0.966667 -0.466667 0
0.966667 -0.483333 0
0.983333 -0.483333 0
0.966667 -0.466667 0
0.983333 -0.466667 0
0.983333 -0.483333 0
1 -0.483333 0
0.983333 -0.466667 0
1 -0.466667 0
0 -0.466667 0
0.0166667 -0.466667 0
0 -0.45 0
0.0166667 -0.45 0
0.0166667 -0.466667 0
0.0333333 -0.466667 0
0.0166667 -0.45 0
0.0333333 -0.45 0
0.0333333 -0.466667 0
0.05 -0.466667 0
0.0333333 -0.45 0
0.05 -0.45 0
0.05 -0.466667 0
0.0666667 -0.466667 0
0.05 -0.45 0
0.0666667 -0.45 0
0.0666667 -0.466667 0
0.0833333 -0.466667 0
0.0666667 -0.45 0
0.0833333 -0.45 0
0.0833333 -0.466667 0
0.1 -0.466667 0
0.0833333 -0.45 0
0.1 -0.45 0
0.1 -0.466667 0
0.116667 -0.466667 0
0.1 -0.45 0
0.116667 -0.45 0
0.116667 -0.466667 0
0.133333 -0.466667 0
0.116667 -0.45 0
0.133333 -0.45 0
0.133333 -0.466667 0
0.15 -0.466667 0
0.133333 -0.45 0
0.15 -0.45 0
0.15 -0.466667 0
0.166667 -0.466667 0
0.15 -0.45 0
0.166667 -0.45 0
0.166667 -0.466667 0
0.183333 -0.466667 0
0.166667 -0.45 0
0.183333 -0.45 0
0.183333 -0.466667 0
0.2 -0.466667 0
0.183333 -0.45 0
0.2 -0.45 0
0.2 -0.466667 0
0.216667 -0.466667 0
0.2 -0.45 0
0.216667 -0.45 0
0.216667 -0.466667 0
0.233333 -0.466667 0
0.216667 -0.45 0
0.233333 -0.45 0
0.233333 -0.466667 0
0.25 -0.466667 0
0.233333 -0.45 0
0.25 -0.45 0
[...]
POINT_DATA 14400
SCALARS x1_displacement double 1
LOOKUP_TABLE default
0 0.000150948 0 0.000135738 0.000150948 0.000307384 0.000135738 0.000307901 0.000307384 0.000485263 0.000307901 0.00049124 0.000485263 0.000687929 0.00049124 0.000687452 0.000687929 0.000912797 0.000687452 0.000897456 0.000912797 0.00115729 0.000897456 0.0011211 0.00115729 0.00141902 0.0011211 0.00135761 0.00141902 0.00169588 0.00135761 0.00160591 0.00169588 0.00198591 0.00160591 0.00186478 0.00198591 0.00228724 0.00186478 0.00213287 0.00228724 0.00259802 0.00213287 0.00240875 0.00259802 0.00291634 0.00240875 0.0026909 0.00291634 0.00324026 0.0026909 0.00297772 0.00324026 0.00356775 0.00297772 0.00326754 0.00356775 0.00389676 0.00326754 0.00355864 0.00389676 0.00422522 0.00355864 0.00384931 0.00422522 0.00455107 0.00384931 0.00413781 0.00455107 0.00487234 0.00413781 0.00442251 0.00487234 0.00518719 0.00442251 0.00470183 0.00518719 0.00549389 0.00470183 0.00497433 0.00549389 0.00579096 0.00497433 0.00523872 0.00579096 0.00607707 0.00523872 0.00549389 0.00607707 0.00635116 0.00549389 0.0057389 0.00635116 0.00661239 0.0057389 0.00597299 0.00661239 0.00686014 0.00597299 0.00619561 0.00686014 0.00709399 0.00619561 0.00640635 0.00709399 0.00731376 0.00640635 0.00660499 0.00731376 0.00751939 0.00660499 0.00679145 0.00751939 0.007711 0.00679145 0.00696579 0.007711 0.00788885 0.00696579 0.00712815 0.00788885 0.00805327 0.00712815 0.00727879 0.00805327 0.00820472 0.00727879 0.00741805 0.00820472 0.00834368 0.00741805 0.00754631 0.00834368 0.0084707 0.00754631 0.00766401 0.0084707 0.00858635 0.00766401 0.00777161 0.00858635 0.00869124 0.00777161 0.00786961 0.00869124 0.00878596 0.00786961 0.0079585 0.00878596 0.00887111 0.0079585 0.0080388 0.00887111 0.00894729 0.0080388 0.008111 0.00894729 0.00901509 0.008111 0.0081756 0.00901509 0.00907506 0.0081756 0.0082331 0.00907506 0.00912775 0.0082331 0.00828398 0.00912775 0.00917369 0.00828398 0.00832868 0.00917369 0.00921338 0.00832868 0.00836766 0.00921338 0.00924731 0.00836766 0.00840136 0.00924731 0.00927594 0.00840136 0.00843018 0.00927594 0.00929973 0.00843018 0.00845453 0.00929973 0.00931912 0.00845453 0.00847482 0.00931912 0.00933452 0.00847482 0.00849141 0.00933452 0.00934636 0.00849141 0.00850469 0.00934636 0.00935507 0.00850469 0.00851503 0.00935507 0.00936105 0.00851503 0.0085228 0.00936105 0.00936475 0.0085228 0.00852838 0.00936475 0.0093666 0.00852838 0.00853213 0.0093666 0.00936706 0.00853213 0.00853443 0.00936706 0.00936661 0.00853443 0.00853565 0.00936661 0.00936572 0.00853565 0.00853615 0.00936572 0.00936485 0.00853615 0.00853624 0.00936485 0.00936433 0.00853624 0.0085362 0.00936433 0.0093642 0.0085362 0.00853626 0 0.000135738 0 0.000130041 0.000135738 0.000307901 0.000130041 0.000289163 0.000307901 0.00049124 0.000289163 0.000465524 0.00049124 0.000687452 0.000465524 0.000651916 0.000687452 0.000897456 0.000651916 0.000847562 0.000897456 0.0011211 0.000847562 0.00105248 0.0011211 0.00135761 0.00105248 0.00126659 0.00135761 0.00160591 0.00126659 0.00148951 0.00160591 0.00186478 0.00148951 0.00172062 0.00186478 0.00213287 0.00172062 0.00195907 0.00213287 0.00240875 0.00195907 0.00220386 0.00240875 0.0026909 0.00220386 0.00245384 0.0026909 0.00297772 0.00245384 0.00270771 0.00297772 0.00326754 0.00270771 0.00296412 0.00326754 0.00355864 0.00296412 0.00322162 0.00355864 0.00384931 0.00322162 0.00347874 0.00384931 0.00413781 0.00347874 0.00373401 0.00413781 0.00442251 0.00373401 0.003986 0.00442251 0.00470183 0.003986 0.00423337 0.00470183 0.00497433 0.00423337 0.00447487 0.00497433 0.00523872 0.00447487 0.00470938 0.00523872 0.00549389 0.00470938 0.00493594 0.00549389 0.0057389 0.00493594 0.00515373 0.0057389 0.00597299 0.00515373 0.00536211 0.00597299 0.00619561 0.00536211 0.00556057 0.00619561 0.00640635 0.00556057 0.00574878 0.00640635 0.00660499 0.00574878 0.00592652 0.00660499 0.00679145 0.00592652 0.0060937 0.00679145 0.00696579 0.0060937 0.00625037 0.00696579 0.00712815 0.00625037 0.00639662 0.00712815 0.00727879 0.00639662 0.00653267 0.00727879 0.00741805 0.00653267 0.00665878 0.00741805 0.00754631 0.00665878 0.00677527 0.00754631 0.00766401 0.00677527 0.00688248 0.00766401 0.00777161 0.00688248 0.00698082 0.00777161 0.00786961 0.00698082 0.00707068 0.00786961 0.0079585 0.00707068 0.00715248 0.0079585 0.0080388 0.00715248 0.00722666 0.0080388 0.008111 0.00722666 0.00729364 0.008111 0.0081756 0.00729364 0.00735384 0.0081756 0.0082331 0.00735384 0.00740769 0.0082331 0.00828398 0.00740769 0.00745559 0.00828398 0.00832868 0.00745559 0.00749794 0.00832868 0.00836766 0.00749794 0.00753514 0.00836766 0.00840136 0.00753514 0.00756755 0.00840136 0.00843018 0.00756755 0.00759555 0.00843018 0.00845453 0.00759555 0.00761949 0.00845453 0.00847482 0.00761949 0.00763971 0.00847482 0.00849141 0.00763971 0.00765655 0.00849141 0.00850469 0.00765655 0.00767034 0.00850469 0.00851503 0.00767034 0.00768139 0.00851503 0.0085228 0.00768139 0.00769002 0.0085228 0.00852838 0.00769002 0.00769654 0.00852838 0.00853213 0.00769654 0.00770127 0.00853213 0.00853443 0.00770127 0.00770449 0.00853443 0.00853565 0.00770449 0.00770651 0.00853565 0.00853615 0.00770651 0.00770761 0.00853615 0.00853624 0.00770761 0.00770809 0.00853624 0.0085362 0.00770809 0.00770827 0.0085362 0.00853626 0.00770827 0.00770851 0 0.000130041 0 0.00011954 0.000130041 0.000289163 0.00011954 0.000264042 0.000289163 0.000465524 0.000264042 0.000424797 0.000465524 0.000651916 0.000424797 0.000596053 0.000651916 0.000847562 0.000596053 0.000774982 0.000847562 0.00105248 0.000774982 0.000960839 0.00105248 0.00126659 0.000960839 0.00115345 0.00126659 0.00148951 0.00115345 0.00135268 0.00148951 0.00172062 0.00135268 0.00155825 0.00172062 0.00195907 0.00155825 0.00176968 0.00195907 0.00220386 0.00176968 0.00198631 0.00220386 0.00245384 0.00198631 0.00220728 0.00245384 0.00270771 0.00220728 0.00243157 0.00270771 0.00296412 0.00243157 0.00265804 0.00296412 0.00322162 0.00265804 0.00288546 0.00322162 0.00347874 0.00288546 0.00311253 0.00347874 0.00373401 0.00311253 0.00333796 0.00373401 0.003986 0.00333796 0.00356048 0.003986 0.00423337 0.00356048 0.00377889 0.00423337 0.00447487 0.00377889 0.00399208 0.00447487 0.00470938 0.00399208 0.00419908 0.00470938 0.00493594 0.00419908 0.00439904 0.00493594 0.00515373 0.00439904 0.00459126 0.00515373 0.00536211 0.00459126 0.00477519 0.00536211 0.00556057 0.00477519 0.00495043 0.00556057 0.00574878 0.00495043 0.00511668 0.00574878 0.00592652 0.00511668 0.0052738 0.00592652 0.0060937 0.0052738 0.00542173 0.0060937 0.00625037 0.00542173 0.0055605 0.00625037 0.00639662 0.0055605 0.00569023 0.00639662 0.00653267 0.00569023 0.0058111 0.00653267 0.00665878 0.0058111 0.00592333 0.00665878 0.00677527 0.00592333 0.00602721 0.00677527 0.00688248 0.00602721 0.00612302 0.00688248 0.00698082 0.00612302 0.00621111 0.00698082 0.00707068 0.00621111 0.00629182 0.00707068 0.00715248 0.00629182 0.0063655 0.00715248 0.00722666 0.0063655 0.00643251 0.00722666 0.00729364 0.00643251 0.00649322 0.00729364 0.00735384 0.00649322 0.00654798 0.00735384 0.00740769 0.00654798 0.00659716 0.00740769 0.00745559 0.00659716 0.00664109 0.00745559 0.00749794 0.00664109 0.00668013 0.00749794 0.00753514 0.00668013 0.00671459 0.00753514 0.00756755 0.00671459 0.00674481 0.00756755 0.00759555 0.00674481 0.0067711 0.00759555 0.00761949 0.0067711 0.00679375 0.00761949 0.00763971 0.00679375 0.00681306 0.00763971 0.00765655 0.00681306 0.00682932 0.00765655 0.00767034 0.00682932 0.00684279 0.00767034 0.00768139 0.00684279 0.00685375 0.00768139 0.00769002 0.00685375 0.00686246 0.00769002 0.00769654 0.00686246 0.00686916 0.00769654 0.00770127 0.00686916 0.00687411 0.00770127 0.00770449 0.00687411 0.00687755 0.00770449 0.00770651 0.00687755 0.00687974 0.00770651 0.00770761 0.00687974 0.00688092 0.00770761 0.00770809 0.00688092 0.00688139 0.00770809 0.00770827 0.00688139 0.00688151 0.00770827 0.00770851 0.00688151 0.00688175 0 0.00011954 0 0.000106618 0.00011954 0.000264042 0.000106618 0.000233977 0.000264042 0.000424797 0.000233977 0.000376199 0.000424797 0.000596053 0.000376199 0.000528518 0.000596053 0.000774982 0.000528518 0.000688081 0.000774982 0.000960839 0.000688081 0.000853541 0.000960839 0.00115345 0.000853541 0.00102443 0.00115345 0.00135268 0.00102443 0.0012006 0.00135268 0.00155825 0.0012006 0.0013819 0.00155825 0.00176968 0.0013819 0.00156808 0.00176968 0.00198631 0.00156808 0.00175868 0.00198631 0.00220728 0.00175868 0.00195307 0.00220728 0.00243157 0.00195307 0.00215042 0.00243157 0.00265804 0.00215042 0.00234975 0.00265804 0.00288546 0.00234975 0.00254996 0.00288546 0.00311253 0.00254996 0.00274987 0.00311253 0.00333796 0.00274987 0.00294827 0.00333796 0.00356048 0.00294827 0.00314399 0.00356048 0.00377889 0.00314399 0.00333593 0.00377889 0.00399208 0.00333593 0.00352307 0.00399208 0.00419908 0.00352307 0.00370454 0.00419908 0.00439904 0.00370454 0.00387959 0.00439904 0.00459126 0.00387959 0.00404764 0.00459126 0.00477519 0.00404764 0.00420824 0.00477519 0.00495043 0.00420824 0.00436108 0.00495043 0.00511668 0.00436108 0.00450594 0.00511668 0.0052738 0.00450594 0.00464276 0.0052738 0.00542173 0.00464276 0.00477152 0.00542173 0.0055605 0.00477152 0.00489229 0.0055605 0.00569023 0.00489229 0.00500522 0.00569023 0.0058111 0.00500522 0.00511048 0.0058111 0.00592333 0.00511048 0.0052083 0.00592333 0.00602721 0.0052083 0.00529893 0.00602721 0.00612302 0.00529893 0.00538263 0.00612302 0.00621111 0.00538263 0.00545971 0.00621111 0.00629182 0.00545971 0.00553045 0.00629182 0.0063655 0.00553045 0.00559516 0.0063655 0.00643251 0.00559516 0.00565415 0.00643251 0.00649322 0.00565415 0.00570772 0.00649322 0.00654798 0.00570772 0.00575619 0.00654798 0.00659716 0.00575619 0.00579983 0.00659716 0.00664109 0.00579983 0.00583896 0.00664109 0.00668013 0.00583896 0.00587385 0.00668013 0.00671459 0.00587385 0.00590477 0.00671459 0.00674481 0.00590477 0.00593201 0.00674481 0.0067711 0.00593201 0.00595581 0.0067711 0.00679375 0.00595581 0.00597642 0.00679375 0.00681306 0.00597642 0.00599409 0.00681306 0.00682932 0.00599409 0.00600905 0.00682932 0.00684279 0.00600905 0.00602152 0.00684279 0.00685375 0.00602152 0.00603172 0.00685375 0.00686246 0.00603172 0.00603985 0.00686246 0.00686916 0.00603985 0.00604611 0.00686916 0.00687411 0.00604611 0.00605071 0.00687411 0.00687755 0.00605071 0.00605384 0.00687755 0.00687974 0.00605384 0.00605572 0.00687974 0.00688092 0.00605572 0.0060566 0.00688092 0.00688139 0.0060566 0.00605675 0.00688139 0.00688151 0.00605675 0.00605658 0.00688151 0.00688175 0.00605658 0.00605664 0 0.000106618 0 9.18826e-05 0.000106618 0.000233977 9.18826e-05 0.000200826 0.000233977 0.000376199 0.000200826 0.000322732 0.000376199 0.000528518 0.000322732 0.000454021 0.000528518 0.000688081 0.000454021 0.00059219 0.000688081 0.000853541 0.00059219 0.000735832 0.000853541 0.00102443 0.000735832 0.000884318 0.00102443 0.0012006 0.000884318 0.00103743 0.0012006 0.0013819 0.00103743 0.00119506 0.0013819 0.00156808 0.00119506 0.00135706 0.00156808 0.00175868 0.00135706 0.00152313 0.00175868 0.00195307 0.00152313 0.00169275 0.00195307 0.00215042 0.00169275 0.00186522 0.00215042 0.00234975 0.00186522 0.00203963 0.00234975 0.00254996 0.00203963 0.00221495 0.00254996 0.00274987 0.00221495 0.00239004 0.00274987 0.00294827 0.00239004 0.00256372 0.00294827 0.00314399 0.00256372 0.00273485 0.00314399 0.00333593 0.00273485 0.00290236 0.00333593 0.00352307 0.00290236 0.00306531 0.00352307 0.00370454 0.00306531 0.00322289 0.00370454 0.00387959 0.00322289 0.00337446 0.00387959 0.00404764 0.00337446 0.00351951 0.00404764 0.00420824 0.00351951 0.00365771 0.00420824 0.00436108 0.00365771 0.00378885 0.00436108 0.00450594 0.00378885 0.00391283 0.00450594 0.00464276 0.00391283 0.00402964 0.00464276 0.00477152 0.00402964 0.00413935 0.00477152 0.00489229 0.00413935 0.0042421 0.00489229 0.00500522 0.0042421 0.00433806 0.00500522 0.00511048 0.00433806 0.00442743 0.00511048 0.0052083 0.00442743 0.00451045 0.0052083 0.00529893 0.00451045 0.00458736 0.00529893 0.00538263 0.00458736 0.00465841 0.00538263 0.00545971 0.00465841 0.00472388 0.00545971 0.00553045 0.00472388 0.00478403 0.00553045 0.00559516 0.00478403 0.00483911 0.00559516 0.00565415 0.00483911 0.00488939 0.00565415 0.00570772 0.00488939 0.00493514 0.00570772 0.00575619 0.00493514 0.0049766 0.00575619 0.00579983 0.0049766 0.00501402 0.00579983 0.00583896 0.00501402 0.00504764 0.00583896 0.00587385 0.00504764 0.00507769 0.00587385 0.00590477 0.00507769 0.0051044 0.00590477 0.00593201 0.0051044 0.00512798 0.00593201 0.00595581 0.00512798 0.00514865 0.00595581 0.00597642 0.00514865 0.00516659 0.00597642 0.00599409 0.00516659 0.005182 0.00599409 0.00600905 0.005182 0.00519507 0.00600905 0.00602152 0.00519507 0.00520596 0.00602152 0.00603172 0.00520596 0.00521483 0.00603172 0.00603985 0.00521483 0.00522186 0.00603985 0.00604611 0.00522186 0.00522719 0.00604611 0.00605071 0.00522719 0.00523099 0.00605071 0.00605384 0.00523099 0.00523341 0.00605384 0.00605572 0.00523341 0.00523465 0.00605572 0.0060566 0.00523465 0.00523493 0.0060566 0.00605675 0.00523493 0.00523455 0.00605675 0.00605658 0.00523455 0.00523389 0.00605658 0.00605664 0.00523389 0.00523354 0 9.18826e-05 0 7.59314e-05 9.18826e-05 0.000200826 7.59314e-05 0.000165594 0.000200826 0.000322732 0.000165594 0.000266199 0.000322732 0.000454021 0.000266199 0.000375174 0.000454021 0.00059219 0.000375174 0.000490585 0.00059219 0.000735832 0.000490585 0.000611237 0.000735832 0.000884318 0.000611237 0.000736541 0.000884318 0.00103743 0.000736541 0.000866287 0.00103743 0.00119506 0.000866287 0.00100042 0.00119506 0.00135706 0.00100042 0.00113885 0.00135706 0.00152313 0.00113885 0.00128137 0.00152313 0.00169275 0.00128137 0.00142753 0.00169275 0.00186522 0.00142753 0.00157668 0.00186522 0.00203963 0.00157668 0.00172793 0.00203963 0.00221495 0.00172793 0.00188022 0.00221495 0.00239004 0.00188022 0.00203239 0.00239004 0.00256372 0.00203239 0.00218323 0.00256372 0.00273485 0.00218323 0.00233156 0.00273485 0.00290236 0.00233156 0.00247633 0.00290236 0.00306531 0.00247633 0.0026166 0.00306531 0.00322289 0.0026166 0.00275162 0.00322289 0.00337446 0.00275162 0.00288082 0.00337446 0.00351951 0.00288082 0.00300382 0.00351951 0.00365771 0.00300382 0.00312038 0.00365771 0.00378885 0.00312038 0.0032304 0.00378885 0.00391283 0.0032304 0.0033339 0.00391283 0.00402964 0.0033339 0.00343097 0.00402964 0.00413935 0.00343097 0.00352178 0.00413935 0.0042421 0.00352178 0.00360652 0.0042421 0.00433806 0.00360652 0.00368542 0.00433806 0.00442743 0.00368542 0.00375872 0.00442743 0.00451045 0.00375872 0.00382668 0.00451045 0.00458736 0.00382668 0.00388955 0.00458736 0.00465841 0.00388955 0.00394757 0.00465841 0.00472388 0.00394757 0.004001 0.00472388 0.00478403 0.004001 0.00405008 0.00478403 0.00483911 0.00405008 0.00409503 0.00483911 0.00488939 0.00409503 0.00413609 0.00488939 0.00493514 0.00413609 0.00417347 0.00493514 0.0049766 0.00417347 0.00420737 0.0049766 0.00501402 0.00420737 0.00423801 0.00501402 0.00504764 0.00423801 0.00426556 0.00504764 0.00507769 0.00426556 0.00429023 0.00507769 0.0051044 0.00429023 0.00431217 0.0051044 0.00512798 0.00431217 0.00433156 0.00512798 0.00514865 0.00433156 0.00434856 0.00514865 0.00516659 0.00434856 0.00436331 0.00516659 0.005182 0.00436331 0.00437596 0.005182 0.00519507 0.00437596 0.00438665 0.00519507 0.00520596 0.00438665 0.00439549 0.00520596 0.00521483 0.00439549 0.0044026 0.00521483 0.00522186 0.0044026 0.00440812 0.00522186 0.00522719 0.00440812 0.00441214 0.00522719 0.00523099 0.00441214 0.00441479 0.00523099 0.00523341 0.00441479 0.00441621 0.00523341 0.00523465 0.00441621 0.00441655 0.00523465 0.00523493 0.00441655 0.00441602 0.00523493 0.00523455 0.00441602 0.00441491 0.00523455 0.00523389 0.00441491 0.0044136 0.00523389 0.00523354 0.0044136 0.00441264 0 7.59314e-05 0 5.91598e-05 7.59314e-05 0.000165594 5.91598e-05 0.00012899 0.000165594 0.000266199 0.00012899 0.000207694 0.000266199 0.000375174 0.000207694 0.000293574 0.000375174 0.000490585 0.000293574 0.000385311 0.000490585 0.000611237 0.000385311 0.000482076 0.000611237 0.000736541 0.000482076 0.000583483 0.000736541 0.000866287 0.000583483 0.00068944 0.000866287 0.00100042 0.00068944 0.000799985 0.00100042 0.00113885 0.000799985 0.000915122 0.00113885 0.00128137 0.000915122 0.00103469 0.00128137 0.00142753 0.00103469 0.00115831 0.00142753 0.00157668 0.00115831 0.0012853 0.00157668 0.00172793 0.0012853 0.00141475 0.00172793 0.00188022 0.00141475 0.0015455 0.00188022 0.00203239 0.0015455 0.00167629 0.00203239 0.00218323 0.00167629 0.00180581 0.00218323 0.00233156 0.00180581 0.0019328 0.00233156 0.00247633 0.0019328 0.00205615 0.00247633 0.0026166 0.00205615 0.00217492 0.0026166 0.00275162 0.00217492 0.00228841 0.00275162 0.00288082 0.00228841 0.00239612 0.00288082 0.00300382 0.00239612 0.00249777 0.00300382 0.00312038 0.00249777 0.00259325 0.00312038 0.0032304 0.00259325 0.0026826 0.0032304 0.0033339 0.0026826 0.00276595 0.0033339 0.00343097 0.00276595 0.00284351 0.00343097 0.00352178 0.00284351 0.00291554 0.00352178 0.00360652 0.00291554 0.00298232 0.00360652 0.00368542 0.00298232 0.00304414 0.00368542 0.00375872 0.00304414 0.00310128 0.00375872 0.00382668 0.00310128 0.00315403 0.00382668 0.00388955 0.00315403 0.00320265 0.00388955 0.00394757 0.00320265 0.00324739 0.00394757 0.004001 0.00324739 0.0032885 0.004001 0.00405008 0.0032885 0.00332619 0.00405008 0.00409503 0.00332619 0.00336066 0.00409503 0.00413609 0.00336066 0.00339212 0.00413609 0.00417347 0.00339212 0.00342073 0.00417347 0.00420737 0.00342073 0.00344668 0.00420737 0.00423801 0.00344668 0.00347011 0.00423801 0.00426556 0.00347011 0.00349118 0.00426556 0.00429023 0.00349118 0.00351003 0.00429023 0.00431217 0.00351003 0.00352678 0.00431217 0.00433156 0.00352678 0.00354155 0.00433156 0.00434856 0.00354155 0.00355447 0.00434856 0.00436331 0.00355447 0.00356562 0.00436331 0.00437596 0.00356562 0.00357511 0.00437596 0.00438665 0.00357511 0.00358303 0.00438665 0.00439549 0.00358303 0.00358946 0.00439549 0.0044026 0.00358946 0.00359448 0.0044026 0.00440812 0.00359448 0.00359816 0.00440812 0.00441214 0.00359816 0.00360058 0.00441214 0.00441479 0.00360058 0.00360183 0.00441479 0.00441621 0.00360183 0.00360202 0.00441621 0.00441655 0.00360202 0.00360127 0.00441655 0.00441602 0.00360127 0.00359978 0.00441602 0.00441491 0.00359978 0.0035978 0.00441491 0.0044136 0.0035978 0.00359568 0.0044136 0.00441264 0.00359568 0.00359392 0 5.91598e-05 0 4.18715e-05 5.91598e-05 0.00012899 4.18715e-05 9.15287e-05 0.00012899 0.000207694 9.15287e-05 0.000147978 0.000207694 0.000293574 0.000147978 0.000210277 0.000293574 0.000385311 0.000210277 0.000277718 0.000385311 0.000482076 0.000277718 0.000349918 0.000482076 0.000583483 0.000349918 0.000426799 0.000583483 0.00068944 0.000426799 0.000508494 0.00068944 0.000799985 0.000508494 0.000595208 0.000799985 0.000915122 0.000595208 0.000687074 0.000915122 0.00103469 0.000687074 0.000784025 0.00103469 0.00115831 0.000784025 0.000885698 0.00115831 0.0012853 0.000885698 0.000991392 0.0012853 0.00141475 0.000991392 0.00110008 0.00141475 0.0015455 0.00110008 0.00121047 0.0015455 0.00167629 0.00121047 0.00132111 0.00167629 0.00180581 0.00132111 0.00143053 0.00180581 0.0019328 0.00143053 0.00153731 0.0019328 0.00205615 0.00153731 0.00164026 0.00205615 0.00217492 0.00164026 0.00173841 0.00217492 0.00228841 0.00173841 0.0018311 0.00228841 0.00239612 0.0018311 0.00191793 0.00239612 0.00249777 0.00191793 0.00199872 0.00249777 0.00259325 0.00199872 0.00207351 0.00259325 0.0026826 0.00207351 0.00214249 0.0026826 0.00276595 0.00214249 0.00220592 0.00276595 0.00284351 0.00220592 0.00226414 0.00284351 0.00291554 0.00226414 0.00231751 0.00291554 0.00298232 0.00231751 0.0023664 0.00298232 0.00304414 0.0023664 0.00241117 0.00304414 0.00310128 0.00241117 0.00245214 0.00310128 0.00315403 0.00245214 0.00248963 0.00315403 0.00320265 0.00248963 0.00252392 0.00320265 0.00324739 0.00252392 0.00255526 0.00324739 0.0032885 0.00255526 0.00258389 0.0032885 0.00332619 0.