# vtk DataFile Version 3.0
#This file was generated by the deal.II library on 2021/2/9 at 23:37:07
ASCII
DATASET UNSTRUCTURED_GRID

POINTS 14400 double
0 -0.5 0
0.0166667 -0.5 0
0 -0.483333 0
0.0166667 -0.483333 0
0.0166667 -0.5 0
0.0333333 -0.5 0
0.0166667 -0.483333 0
0.0333333 -0.483333 0
0.0333333 -0.5 0
0.05 -0.5 0
0.0333333 -0.483333 0
0.05 -0.483333 0
0.05 -0.5 0
0.0666667 -0.5 0
0.05 -0.483333 0
0.0666667 -0.483333 0
0.0666667 -0.5 0
0.0833333 -0.5 0
0.0666667 -0.483333 0
0.0833333 -0.483333 0
0.0833333 -0.5 0
0.1 -0.5 0
0.0833333 -0.483333 0
0.1 -0.483333 0
0.1 -0.5 0
0.116667 -0.5 0
0.1 -0.483333 0
0.116667 -0.483333 0
0.116667 -0.5 0
0.133333 -0.5 0
0.116667 -0.483333 0
0.133333 -0.483333 0
0.133333 -0.5 0
0.15 -0.5 0
0.133333 -0.483333 0
0.15 -0.483333 0
0.15 -0.5 0
0.166667 -0.5 0
0.15 -0.483333 0
0.166667 -0.483333 0
0.166667 -0.5 0
0.183333 -0.5 0
0.166667 -0.483333 0
0.183333 -0.483333 0
0.183333 -0.5 0
0.2 -0.5 0
0.183333 -0.483333 0
0.2 -0.483333 0
0.2 -0.5 0
0.216667 -0.5 0
0.2 -0.483333 0
0.216667 -0.483333 0
0.216667 -0.5 0
0.233333 -0.5 0
0.216667 -0.483333 0
0.233333 -0.483333 0
0.233333 -0.5 0
0.25 -0.5 0
0.233333 -0.483333 0
0.25 -0.483333 0
0.25 -0.5 0
0.266667 -0.5 0
0.25 -0.483333 0
0.266667 -0.483333 0
0.266667 -0.5 0
0.283333 -0.5 0
0.266667 -0.483333 0
0.283333 -0.483333 0
0.283333 -0.5 0
0.3 -0.5 0
0.283333 -0.483333 0
0.3 -0.483333 0
0.3 -0.5 0
0.316667 -0.5 0
0.3 -0.483333 0
0.316667 -0.483333 0
0.316667 -0.5 0
0.333333 -0.5 0
0.316667 -0.483333 0
0.333333 -0.483333 0
0.333333 -0.5 0
0.35 -0.5 0
0.333333 -0.483333 0
0.35 -0.483333 0
0.35 -0.5 0
0.366667 -0.5 0
0.35 -0.483333 0
0.366667 -0.483333 0
0.366667 -0.5 0
0.383333 -0.5 0
0.366667 -0.483333 0
0.383333 -0.483333 0
0.383333 -0.5 0
0.4 -0.5 0
0.383333 -0.483333 0
0.4 -0.483333 0
0.4 -0.5 0
0.416667 -0.5 0
0.4 -0.483333 0
0.416667 -0.483333 0
0.416667 -0.5 0
0.433333 -0.5 0
0.416667 -0.483333 0
0.433333 -0.483333 0
0.433333 -0.5 0
0.45 -0.5 0
0.433333 -0.483333 0
0.45 -0.483333 0
0.45 -0.5 0
0.466667 -0.5 0
0.45 -0.483333 0
0.466667 -0.483333 0
0.466667 -0.5 0
0.483333 -0.5 0
0.466667 -0.483333 0
0.483333 -0.483333 0
0.483333 -0.5 0
0.5 -0.5 0
0.483333 -0.483333 0
0.5 -0.483333 0
0.5 -0.5 0
0.516667 -0.5 0
0.5 -0.483333 0
0.516667 -0.483333 0
0.516667 -0.5 0
0.533333 -0.5 0
0.516667 -0.483333 0
0.533333 -0.483333 0
0.533333 -0.5 0
0.55 -0.5 0
0.533333 -0.483333 0
0.55 -0.483333 0
0.55 -0.5 0
0.566667 -0.5 0
0.55 -0.483333 0
0.566667 -0.483333 0
0.566667 -0.5 0
0.583333 -0.5 0
0.566667 -0.483333 0
0.583333 -0.483333 0
0.583333 -0.5 0
0.6 -0.5 0
0.583333 -0.483333 0
0.6 -0.483333 0
0.6 -0.5 0
0.616667 -0.5 0
0.6 -0.483333 0
0.616667 -0.483333 0
0.616667 -0.5 0
0.633333 -0.5 0
0.616667 -0.483333 0
0.633333 -0.483333 0
0.633333 -0.5 0
0.65 -0.5 0
0.633333 -0.483333 0
0.65 -0.483333 0
0.65 -0.5 0
0.666667 -0.5 0
0.65 -0.483333 0
0.666667 -0.483333 0
0.666667 -0.5 0
0.683333 -0.5 0
0.666667 -0.483333 0
0.683333 -0.483333 0
0.683333 -0.5 0
0.7 -0.5 0
0.683333 -0.483333 0
0.7 -0.483333 0
0.7 -0.5 0
0.716667 -0.5 0
0.7 -0.483333 0
0.716667 -0.483333 0
0.716667 -0.5 0
0.733333 -0.5 0
0.716667 -0.483333 0
0.733333 -0.483333 0
0.733333 -0.5 0
0.75 -0.5 0
0.733333 -0.483333 0
0.75 -0.483333 0
0.75 -0.5 0
0.766667 -0.5 0
0.75 -0.483333 0
0.766667 -0.483333 0
0.766667 -0.5 0
0.783333 -0.5 0
0.766667 -0.483333 0
0.783333 -0.483333 0
0.783333 -0.5 0
0.8 -0.5 0
0.783333 -0.483333 0
0.8 -0.483333 0
0.8 -0.5 0
0.816667 -0.5 0
0.8 -0.483333 0
0.816667 -0.483333 0
0.816667 -0.5 0
0.833333 -0.5 0
0.816667 -0.483333 0
0.833333 -0.483333 0
0.833333 -0.5 0
0.85 -0.5 0
0.833333 -0.483333 0
0.85 -0.483333 0
0.85 -0.5 0
0.866667 -0.5 0
0.85 -0.483333 0
0.866667 -0.483333 0
0.866667 -0.5 0
0.883333 -0.5 0
0.866667 -0.483333 0
0.883333 -0.483333 0
0.883333 -0.5 0
0.9 -0.5 0
0.883333 -0.483333 0
0.9 -0.483333 0
0.9 -0.5 0
0.916667 -0.5 0
0.9 -0.483333 0
0.916667 -0.483333 0
0.916667 -0.5 0
0.933333 -0.5 0
0.916667 -0.483333 0
0.933333 -0.483333 0
0.933333 -0.5 0
0.95 -0.5 0
0.933333 -0.483333 0
0.95 -0.483333 0
0.95 -0.5 0
0.966667 -0.5 0
0.95 -0.483333 0
0.966667 -0.483333 0
0.966667 -0.5 0
0.983333 -0.5 0
0.966667 -0.483333 0
0.983333 -0.483333 0
0.983333 -0.5 0
1 -0.5 0
0.983333 -0.483333 0
1 -0.483333 0
0 -0.483333 0
0.0166667 -0.483333 0
0 -0.466667 0
0.0166667 -0.466667 0
0.0166667 -0.483333 0
0.0333333 -0.483333 0
0.0166667 -0.466667 0
0.0333333 -0.466667 0
0.0333333 -0.483333 0
0.05 -0.483333 0
0.0333333 -0.466667 0
0.05 -0.466667 0
0.05 -0.483333 0
0.0666667 -0.483333 0
0.05 -0.466667 0
0.0666667 -0.466667 0
0.0666667 -0.483333 0
0.0833333 -0.483333 0
0.0666667 -0.466667 0
0.0833333 -0.466667 0
0.0833333 -0.483333 0
0.1 -0.483333 0
0.0833333 -0.466667 0
0.1 -0.466667 0
0.1 -0.483333 0
0.116667 -0.483333 0
0.1 -0.466667 0
0.116667 -0.466667 0
0.116667 -0.483333 0
0.133333 -0.483333 0
0.116667 -0.466667 0
0.133333 -0.466667 0
0.133333 -0.483333 0
0.15 -0.483333 0
0.133333 -0.466667 0
0.15 -0.466667 0
0.15 -0.483333 0
0.166667 -0.483333 0
0.15 -0.466667 0
0.166667 -0.466667 0
0.166667 -0.483333 0
0.183333 -0.483333 0
0.166667 -0.466667 0
0.183333 -0.466667 0
0.183333 -0.483333 0
0.2 -0.483333 0
0.183333 -0.466667 0
0.2 -0.466667 0
0.2 -0.483333 0
0.216667 -0.483333 0
0.2 -0.466667 0
0.216667 -0.466667 0
0.216667 -0.483333 0
0.233333 -0.483333 0
0.216667 -0.466667 0
0.233333 -0.466667 0
0.233333 -0.483333 0
0.25 -0.483333 0
0.233333 -0.466667 0
0.25 -0.466667 0
0.25 -0.483333 0
0.266667 -0.483333 0
0.25 -0.466667 0
0.266667 -0.466667 0
0.266667 -0.483333 0
0.283333 -0.483333 0
0.266667 -0.466667 0
0.283333 -0.466667 0
0.283333 -0.483333 0
0.3 -0.483333 0
0.283333 -0.466667 0
0.3 -0.466667 0
0.3 -0.483333 0
0.316667 -0.483333 0
0.3 -0.466667 0
0.316667 -0.466667 0
0.316667 -0.483333 0
0.333333 -0.483333 0
0.316667 -0.466667 0
0.333333 -0.466667 0
0.333333 -0.483333 0
0.35 -0.483333 0
0.333333 -0.466667 0
0.35 -0.466667 0
0.35 -0.483333 0
0.366667 -0.483333 0
0.35 -0.466667 0
0.366667 -0.466667 0
0.366667 -0.483333 0
0.383333 -0.483333 0
0.366667 -0.466667 0
0.383333 -0.466667 0
0.383333 -0.483333 0
0.4 -0.483333 0
0.383333 -0.466667 0
0.4 -0.466667 0
0.4 -0.483333 0
0.416667 -0.483333 0
0.4 -0.466667 0
0.416667 -0.466667 0
0.416667 -0.483333 0
0.433333 -0.483333 0
0.416667 -0.466667 0
0.433333 -0.466667 0
0.433333 -0.483333 0
0.45 -0.483333 0
0.433333 -0.466667 0
0.45 -0.466667 0
0.45 -0.483333 0
0.466667 -0.483333 0
0.45 -0.466667 0
0.466667 -0.466667 0
0.466667 -0.483333 0
0.483333 -0.483333 0
0.466667 -0.466667 0
0.483333 -0.466667 0
0.483333 -0.483333 0
0.5 -0.483333 0
0.483333 -0.466667 0
0.5 -0.466667 0
0.5 -0.483333 0
0.516667 -0.483333 0
0.5 -0.466667 0
0.516667 -0.466667 0
0.516667 -0.483333 0
0.533333 -0.483333 0
0.516667 -0.466667 0
0.533333 -0.466667 0
0.533333 -0.483333 0
0.55 -0.483333 0
0.533333 -0.466667 0
0.55 -0.466667 0
0.55 -0.483333 0
0.566667 -0.483333 0
0.55 -0.466667 0
0.566667 -0.466667 0
0.566667 -0.483333 0
0.583333 -0.483333 0
0.566667 -0.466667 0
0.583333 -0.466667 0
0.583333 -0.483333 0
0.6 -0.483333 0
0.583333 -0.466667 0
0.6 -0.466667 0
0.6 -0.483333 0
0.616667 -0.483333 0
0.6 -0.466667 0
0.616667 -0.466667 0
0.616667 -0.483333 0
0.633333 -0.483333 0
0.616667 -0.466667 0
0.633333 -0.466667 0
0.633333 -0.483333 0
0.65 -0.483333 0
0.633333 -0.466667 0
0.65 -0.466667 0
0.65 -0.483333 0
0.666667 -0.483333 0
0.65 -0.466667 0
0.666667 -0.466667 0
0.666667 -0.483333 0
0.683333 -0.483333 0
0.666667 -0.466667 0
0.683333 -0.466667 0
0.683333 -0.483333 0
0.7 -0.483333 0
0.683333 -0.466667 0
0.7 -0.466667 0
0.7 -0.483333 0
0.716667 -0.483333 0
0.7 -0.466667 0
0.716667 -0.466667 0
0.716667 -0.483333 0
0.733333 -0.483333 0
0.716667 -0.466667 0
0.733333 -0.466667 0
0.733333 -0.483333 0
0.75 -0.483333 0
0.733333 -0.466667 0
0.75 -0.466667 0
0.75 -0.483333 0
0.766667 -0.483333 0
0.75 -0.466667 0
0.766667 -0.466667 0
0.766667 -0.483333 0
0.783333 -0.483333 0
0.766667 -0.466667 0
0.783333 -0.466667 0
0.783333 -0.483333 0
0.8 -0.483333 0
0.783333 -0.466667 0
0.8 -0.466667 0
0.8 -0.483333 0
0.816667 -0.483333 0
0.8 -0.466667 0
0.816667 -0.466667 0
0.816667 -0.483333 0
0.833333 -0.483333 0
0.816667 -0.466667 0
0.833333 -0.466667 0
0.833333 -0.483333 0
0.85 -0.483333 0
0.833333 -0.466667 0
0.85 -0.466667 0
0.85 -0.483333 0
0.866667 -0.483333 0
0.85 -0.466667 0
0.866667 -0.466667 0
0.866667 -0.483333 0
0.883333 -0.483333 0
0.866667 -0.466667 0
0.883333 -0.466667 0
0.883333 -0.483333 0
0.9 -0.483333 0
0.883333 -0.466667 0
0.9 -0.466667 0
0.9 -0.483333 0
0.916667 -0.483333 0
0.9 -0.466667 0
0.916667 -0.466667 0
0.916667 -0.483333 0
0.933333 -0.483333 0
0.916667 -0.466667 0
0.933333 -0.466667 0
0.933333 -0.483333 0
0.95 -0.483333 0
0.933333 -0.466667 0
0.95 -0.466667 0
0.95 -0.483333 0
0.966667 -0.483333 0
0.95 -0.466667 0
0.966667 -0.466667 0
0.966667 -0.483333 0
0.983333 -0.483333 0
0.966667 -0.466667 0
0.983333 -0.466667 0
0.983333 -0.483333 0
1 -0.483333 0
0.983333 -0.466667 0
1 -0.466667 0
0 -0.466667 0
0.0166667 -0.466667 0
0 -0.45 0
0.0166667 -0.45 0
0.0166667 -0.466667 0
0.0333333 -0.466667 0
0.0166667 -0.45 0
0.0333333 -0.45 0
0.0333333 -0.466667 0
0.05 -0.466667 0
0.0333333 -0.45 0
0.05 -0.45 0
0.05 -0.466667 0
0.0666667 -0.466667 0
0.05 -0.45 0
0.0666667 -0.45 0
0.0666667 -0.466667 0
0.0833333 -0.466667 0
0.0666667 -0.45 0
0.0833333 -0.45 0
0.0833333 -0.466667 0
0.1 -0.466667 0
0.0833333 -0.45 0
0.1 -0.45 0
0.1 -0.466667 0
0.116667 -0.466667 0
0.1 -0.45 0
0.116667 -0.45 0
0.116667 -0.466667 0
0.133333 -0.466667 0
0.116667 -0.45 0
0.133333 -0.45 0
0.133333 -0.466667 0
0.15 -0.466667 0
0.133333 -0.45 0
0.15 -0.45 0
0.15 -0.466667 0
0.166667 -0.466667 0
0.15 -0.45 0
0.166667 -0.45 0
0.166667 -0.466667 0
0.183333 -0.466667 0
0.166667 -0.45 0
0.183333 -0.45 0
0.183333 -0.466667 0
0.2 -0.466667 0
0.183333 -0.45 0
0.2 -0.45 0
0.2 -0.466667 0
0.216667 -0.466667 0
0.2 -0.45 0
0.216667 -0.45 0
0.216667 -0.466667 0
0.233333 -0.466667 0
0.216667 -0.45 0
0.233333 -0.45 0
0.233333 -0.466667 0
0.25 -0.466667 0
0.233333 -0.45 0
0.25 -0.45 0
[...]
POINT_DATA 14400
SCALARS x1_displacement double 1
LOOKUP_TABLE default
0 -3.54148e-05 0 3.48958e-05 -3.54148e-05 -1.27929e-05 3.48958e-05 8.7628e-05 -1.27929e-05 5.85584e-05 8.7628e-05 0.000164812 5.85584e-05 0.000169011 0.000164812 0.00026743 0.000169011 0.000312958 0.00026743 0.000394759 0.000312958 0.000486691 0.000394759 0.000545629 0.000486691 0.000687701 0.000545629 0.000718853 0.000687701 0.000914125 0.000718853 0.000913302 0.000914125 0.0011644 0.000913302 0.00112785 0.0011644 0.00143706 0.00112785 0.00136133 0.00143706 0.00173059 0.00136133 0.00161247 0.00173059 0.00204339 0.00161247 0.00187987 0.00204339 0.00237379 0.00187987 0.00216208 0.00237379 0.00272016 0.00216208 0.00245758 0.00272016 0.00308091 0.00245758 0.00276491 0.00308091 0.0034546 0.00276491 0.00308266 0.0034546 0.00383986 0.00308266 0.00340947 0.00383986 0.0042353 0.00340947 0.00374398 0.0042353 0.00463933 0.00374398 0.0040847 0.00463933 0.00504986 0.0040847 0.00442985 0.00504986 0.00546422 0.00442985 0.00477725 0.00546422 0.00587903 0.00477725 0.00512428 0.00587903 0.00629035 0.00512428 0.00546794 0.00629035 0.00669393 0.00546794 0.00580505 0.00669393 0.00708557 0.00580505 0.00613249 0.00708557 0.00746141 0.00613249 0.00644739 0.00746141 0.00781823 0.00644739 0.00674735 0.00781823 0.00815356 0.00674735 0.00703051 0.00815356 0.00846578 0.00703051 0.00729561 0.00846578 0.00875408 0.00729561 0.00754194 0.00875408 0.00901841 0.00754194 0.00776939 0.00901841 0.00925946 0.00776939 0.00797834 0.00925946 0.00947859 0.00797834 0.00816968 0.00947859 0.00967785 0.00816968 0.00834478 0.00967785 0.00985995 0.00834478 0.00850547 0.00985995 0.0100284 0.00850547 0.00865403 0.0100284 0.0101873 0.00865403 0.00879318 0.0101873 0.0103414 0.00879318 0.00892597 0.0103414 0.0104961 0.00892597 0.00905567 0.0104961 0.0106562 0.00905567 0.0091854 0.0106562 0.0108258 0.0091854 0.00931764 0.0108258 0.0110072 0.00931764 0.00945361 0.0110072 0.0111996 0.00945361 0.00959272 0.0111996 0.0113997 0.00959272 0.00973236 0.0113997 0.0116012 0.00973236 0.00986826 0.0116012 0.0117965 0.00986826 0.00999527 0.0117965 0.0119769 0.00999527 0.010108 0.0119769 0.0121334 0.010108 0.0102012 0.0121334 0.0122565 0.0102012 0.0102699 0.0122565 0.0123373 0.0102699 0.0103095 0.0123373 0.0123695 0.0103095 0.010317 0.0123695 0.0123528 0.010317 0.0102929 0.0123528 0.012295 0.0102929 0.0102432 0.012295 0.0122121 0.0102432 0.0101787 0.0122121 0.0121234 0.0101787 0.0101123 0.0121234 0.0120464 0.0101123 0.0100546 0.0120464 0.011992 0.0100546 0.010012 0.011992 0.0119633 0.010012 0.00998648 0.0119633 0.0119548 0.00998648 0.00997634 0.0119548 0.0119543 0.00997634 0.00997538 0 3.48958e-05 0 5.06598e-05 3.48958e-05 8.7628e-05 5.06598e-05 0.000121057 8.7628e-05 0.000164812 0.000121057 0.000204394 0.000164812 0.00026743 0.000204394 0.000302565 0.00026743 0.000394759 0.000302565 0.00041699 0.000394759 0.000545629 0.00041699 0.000548376 0.000545629 0.000718853 0.000548376 0.000696882 0.000718853 0.000913302 0.000696882 0.000862299 0.000913302 0.00112785 0.000862299 0.00104413 0.00112785 0.00136133 0.00104413 0.00124164 0.00136133 0.00161247 0.00124164 0.00145381 0.00161247 0.00187987 0.00145381 0.00167944 0.00187987 0.00216208 0.00167944 0.00191714 0.00216208 0.00245758 0.00191714 0.00216544 0.00245758 0.00276491 0.00216544 0.00242288 0.00276491 0.00308266 0.00242288 0.00268813 0.00308266 0.00340947 0.00268813 0.00295999 0.00340947 0.00374398 0.00295999 0.00323743 0.00374398 0.0040847 0.00323743 0.00351939 0.0040847 0.00442985 0.00351939 0.00380463 0.00442985 0.00477725 0.00380463 0.00409157 0.00477725 0.00512428 0.00409157 0.00437812 0.00512428 0.00546794 0.00437812 0.00466184 0.00546794 0.00580505 0.00466184 0.00494009 0.00580505 0.00613249 0.00494009 0.00521029 0.00613249 0.00644739 0.00521029 0.00547019 0.00644739 0.00674735 0.00547019 0.00571791 0.00674735 0.00703051 0.00571791 0.00595209 0.00703051 0.00729561 0.00595209 0.0061718 0.00729561 0.00754194 0.0061718 0.00637653 0.00754194 0.00776939 0.00637653 0.00656613 0.00776939 0.00797834 0.00656613 0.00674076 0.00797834 0.00816968 0.00674076 0.0069009 0.00816968 0.00834478 0.0069009 0.00704725 0.00834478 0.00850547 0.00704725 0.00718079 0.00850547 0.00865403 0.00718079 0.00730275 0.00865403 0.00879318 0.00730275 0.00741462 0.00879318 0.00892597 0.00741462 0.00751823 0.00892597 0.00905567 0.00751823 0.0076157 0.00905567 0.0091854 0.0076157 0.00770943 0.0091854 0.00931764 0.00770943 0.0078017 0.00931764 0.00945361 0.0078017 0.00789397 0.00945361 0.00959272 0.00789397 0.00798597 0.00959272 0.00973236 0.00798597 0.0080753 0.00973236 0.00986826 0.0080753 0.00815802 0.00986826 0.00999527 0.00815802 0.00823009 0.00999527 0.010108 0.00823009 0.00828834 0.010108 0.0102012 0.00828834 0.00833047 0.0102012 0.0102699 0.00833047 0.00835456 0.0102699 0.0103095 0.00835456 0.00835811 0.0103095 0.010317 0.00835811 0.00833773 0.010317 0.0102929 0.00833773 0.00829171 0.0102929 0.0102432 0.00829171 0.00822538 0.0102432 0.0101787 0.00822538 0.00815143 0.0101787 0.0101123 0.00815143 0.00808345 0.0101123 0.0100546 0.00808345 0.00803018 0.0100546 0.010012 0.00803018 0.00799481 0.010012 0.00998648 0.00799481 0.00797718 0.00998648 0.00997634 0.00797718 0.007975 0.00997634 0.00997538 0.007975 0.00798162 0 5.06598e-05 0 5.23048e-05 5.06598e-05 0.000121057 5.23048e-05 0.00012209 0.000121057 0.000204394 0.00012209 0.00020299 0.000204394 0.000302565 0.00020299 0.000293401 0.000302565 0.00041699 0.000293401 0.000394302 0.00041699 0.000548376 0.000394302 0.000506884 0.000548376 0.000696882 0.000506884 0.000632039 0.000696882 0.000862299 0.000632039 0.000770253 0.000862299 0.00104413 0.000770253 0.000921593 0.00104413 0.00124164 0.000921593 0.00108571 0.00124164 0.00145381 0.00108571 0.00126187 0.00145381 0.00167944 0.00126187 0.00144896 0.00167944 0.00191714 0.00144896 0.00164556 0.00191714 0.00216544 0.00164556 0.00185012 0.00216544 0.00242288 0.00185012 0.0020611 0.00242288 0.00268813 0.0020611 0.00227717 0.00268813 0.00295999 0.00227717 0.00249736 0.00295999 0.00323743 0.00249736 0.00272108 0.00323743 0.00351939 0.00272108 0.00294795 0.00351939 0.00380463 0.00294795 0.00317746 0.00380463 0.00409157 0.00317746 0.00340869 0.00409157 0.00437812 0.00340869 0.00364001 0.00437812 0.00466184 0.00364001 0.00386923 0.00466184 0.00494009 0.00386923 0.00409392 0.00494009 0.00521029 0.00409392 0.00431172 0.00521029 0.00547019 0.00431172 0.00452071 0.00547019 0.00571791 0.00452071 0.00471945 0.00571791 0.00595209 0.00471945 0.00490698 0.00595209 0.0061718 0.00490698 0.00508274 0.0061718 0.00637653 0.00508274 0.00524641 0.00637653 0.00656613 0.00524641 0.00539786 0.00656613 0.00674076 0.00539786 0.00553709 0.00674076 0.0069009 0.00553709 0.00566419 0.0069009 0.00704725 0.00566419 0.00577931 0.00704725 0.00718079 0.00577931 0.00588267 0.00718079 0.00730275 0.00588267 0.00597458 0.00730275 0.00741462 0.00597458 0.00605551 0.00741462 0.00751823 0.00605551 0.00612624 0.00751823 0.0076157 0.00612624 0.00618816 0.0076157 0.00770943 0.00618816 0.00624341 0.00770943 0.0078017 0.00624341 0.00629481 0.0078017 0.00789397 0.00629481 0.00634491 0.00789397 0.00798597 0.00634491 0.00639421 0.00798597 0.0080753 0.00639421 0.00643986 0.0080753 0.00815802 0.00643986 0.00647665 0.00815802 0.00823009 0.00647665 0.00650027 0.00823009 0.00828834 0.00650027 0.00650919 0.00828834 0.00833047 0.00650919 0.00650336 0.00833047 0.00835456 0.00650336 0.00648292 0.00835456 0.00835811 0.00648292 0.00644798 0.00835811 0.00833773 0.00644798 0.00639385 0.00833773 0.00829171 0.00639385 0.00631427 0.00829171 0.00822538 0.00631427 0.00621531 0.00822538 0.00815143 0.00621531 0.00611738 0.00815143 0.00808345 0.00611738 0.00603911 0.00808345 0.00803018 0.00603911 0.00598665 0.00803018 0.00799481 0.00598665 0.00595817 0.00799481 0.00797718 0.00595817 0.00594993 0.00797718 0.007975 0.00594993 0.00595789 0.007975 0.00798162 0.00595789 0.00597618 0 5.23048e-05 0 4.6277e-05 5.23048e-05 0.00012209 4.6277e-05 0.000107204 0.00012209 0.00020299 0.000107204 0.000177512 0.00020299 0.000293401 0.000177512 0.000254981 0.000293401 0.000394302 0.000254981 0.000339556 0.000394302 0.000506884 0.000339556 0.000432192 0.000506884 0.000632039 0.000432192 0.00053398 0.000632039 0.000770253 0.00053398 0.000645785 0.000770253 0.000921593 0.000645785 0.000768077 0.000921593 0.00108571 0.000768077 0.000900836 0.00108571 0.00126187 0.000900836 0.0010435 0.00126187 0.00144896 0.0010435 0.001195 0.00144896 0.00164556 0.001195 0.00135377 0.00164556 0.00185012 0.00135377 0.001518 0.00185012 0.0020611 0.001518 0.00168587 0.0020611 0.00227717 0.00168587 0.00185591 0.00227717 0.00249736 0.00185591 0.00202728 0.00249736 0.00272108 0.00202728 0.00219991 0.00272108 0.00294795 0.00219991 0.00237426 0.00294795 0.00317746 0.00237426 0.00255086 0.00317746 0.00340869 0.00255086 0.00272956 0.00340869 0.00364001 0.00272956 0.00290917 0.00364001 0.00386923 0.00290917 0.00308753 0.00386923 0.00409392 0.00308753 0.00326208 0.00409392 0.00431172 0.00326208 0.00343051 0.00431172 0.00452071 0.00343051 0.00359111 0.00452071 0.00471945 0.00359111 0.00374289 0.00471945 0.00490698 0.00374289 0.00388534 0.00490698 0.00508274 0.00388534 0.00401825 0.00508274 0.00524641 0.00401825 0.00414155 0.00524641 0.00539786 0.00414155 0.00425513 0.00539786 0.00553709 0.00425513 0.00435888 0.00553709 0.00566419 0.00435888 0.00445257 0.00566419 0.00577931 0.00445257 0.00453592 0.00577931 0.00588267 0.00453592 0.00460849 0.00588267 0.00597458 0.00460849 0.0046698 0.00597458 0.00605551 0.0046698 0.0047194 0.00605551 0.00612624 0.0047194 0.00475709 0.00612624 0.00618816 0.00475709 0.00478338 0.00618816 0.00624341 0.00478338 0.00480005 0.00624341 0.00629481 0.00480005 0.00481063 0.00629481 0.00634491 0.00481063 0.0048196 0.00634491 0.00639421 0.0048196 0.00482929 0.00639421 0.00643986 0.00482929 0.00483601 0.00643986 0.00647665 0.00483601 0.00483085 0.00647665 0.00650027 0.00483085 0.00480686 0.00650027 0.00650919 0.00480686 0.00476514 0.00650919 0.00650336 0.00476514 0.00470854 0.00650336 0.00648292 0.00470854 0.00463582 0.00648292 0.00644798 0.00463582 0.0045498 0.00644798 0.00639385 0.0045498 0.00445099 0.00639385 0.00631427 0.00445099 0.00432491 0.00631427 0.00621531 0.00432491 0.00418134 0.00621531 0.00611738 0.00418134 0.00405914 0.00611738 0.00603911 0.00405914 0.00397797 0.00603911 0.00598665 0.00397797 0.00393352 0.00598665 0.00595817 0.00393352 0.0039165 0.00595817 0.00594993 0.0039165 0.00392001 0.00594993 0.00595789 0.00392001 0.00393971 0.00595789 0.00597618 0.00393971 0.00397214 0 4.6277e-05 0 3.59676e-05 4.6277e-05 0.000107204 3.59676e-05 8.31402e-05 0.000107204 0.000177512 8.31402e-05 0.000137751 0.000177512 0.000254981 0.000137751 0.000197779 0.000254981 0.000339556 0.000197779 0.000262854 0.000339556 0.000432192 0.000262854 0.000333636 0.000432192 0.00053398 0.000333636 0.000411215 0.00053398 0.000645785 0.000411215 0.000496655 0.000645785 0.000768077 0.000496655 0.000590712 0.000768077 0.000900836 0.000590712 0.00069363 0.000900836 0.0010435 0.00069363 0.000804999 0.0010435 0.001195 0.000804999 0.000923687 0.001195 0.00135377 0.000923687 0.00104789 0.00135377 0.001518 0.00104789 0.00117531 0.001518 0.00168587 0.00117531 0.00130356 0.00168587 0.00185591 0.00130356 0.0014307 0.00185591 0.00202728 0.0014307 0.00155574 0.00202728 0.00219991 0.00155574 0.00167908 0.00219991 0.00237426 0.00167908 0.00180228 0.00237426 0.00255086 0.00180228 0.00192727 0.00255086 0.00272956 0.00192727 0.00205507 0.00272956 0.00290917 0.00205507 0.0021849 0.00290917 0.00308753 0.0021849 0.00231437 0.00308753 0.00326208 0.00231437 0.00244049 0.00326208 0.00343051 0.00244049 0.00256085 0.00343051 0.00359111 0.00256085 0.00267407 0.00359111 0.00374289 0.00267407 0.00277973 0.00374289 0.00388534 0.00277973 0.00287791 0.00388534 0.00401825 0.00287791 0.00296882 0.00401825 0.00414155 0.00296882 0.00305257 0.00414155 0.00425513 0.00305257 0.00312911 0.00425513 0.00435888 0.00312911 0.00319821 0.00435888 0.00445257 0.00319821 0.00325944 0.00445257 0.00453592 0.00325944 0.00331211 0.00453592 0.00460849 0.00331211 0.00335533 0.00460849 0.0046698 0.00335533 0.00338799 0.0046698 0.0047194 0.00338799 0.00340884 0.0047194 0.00475709 0.00340884 0.00341669 0.00475709 0.00478338 0.00341669 0.0034108 0.00478338 0.00480005 0.0034108 0.0033918 0.00480005 0.00481063 0.0033918 0.00336306 0.00481063 0.0048196 0.00336306 0.00333127 0.0048196 0.00482929 0.00333127 0.0033027 0.00482929 0.00483601 0.0033027 0.00327384 0.00483601 0.00483085 0.00327384 0.00322898 0.00483085 0.00480686 0.00322898 0.00315479 0.00480686 0.00476514 0.00315479 0.00305447 0.00476514 0.00470854 0.00305447 0.00294036 0.00470854 0.00463582 0.00294036 0.00280812 0.00463582 0.0045498 0.00280812 0.00265151 0.0045498 0.00445099 0.00265151 0.00245879 0.00445099 0.00432491 0.00245879 0.00225164 0.00432491 0.00418134 0.00225164 0.00207912 0.00418134 0.00405914 0.00207912 0.00196521 0.00405914 0.00397797 0.00196521 0.00190742 0.00397797 0.00393352 0.00190742 0.00188592 0.00393352 0.0039165 0.00188592 0.00188751 0.0039165 0.00392001 0.00188751 0.00190578 0.00392001 0.00393971 0.00190578 0.00193846 0.00393971 0.00397214 0.00193846 0.00198605 0 3.59676e-05 0 2.30783e-05 3.59676e-05 8.31402e-05 2.30783e-05 5.36801e-05 8.31402e-05 0.000137751 5.36801e-05 8.94004e-05 0.000137751 0.000197779 8.94004e-05 0.000128846 0.000197779 0.000262854 0.000128846 0.000171753 0.000262854 0.000333636 0.000171753 0.000218746 0.000333636 0.000411215 0.000218746 0.00027095 0.000411215 0.000496655 0.00027095 0.000329613 0.000496655 0.000590712 0.000329613 0.00039577 0.000590712 0.00069363 0.00039577 0.00046995 0.00069363 0.000804999 0.00046995 0.000551919 0.000804999 0.000923687 0.000551919 0.000640497 0.000923687 0.00104789 0.000640497 0.000733515 0.00104789 0.00117531 0.000733515 0.000827988 0.00117531 0.00130356 0.000827988 0.000920565 0.00130356 0.0014307 0.000920565 0.00100827 0.0014307 0.00155574 0.00100827 0.00108945 0.00155574 0.00167908 0.00108945 0.00116465 0.00167908 0.00180228 0.00116465 0.00123674 0.00180228 0.00192727 0.00123674 0.00130974 0.00192727 0.00205507 0.00130974 0.00138654 0.00205507 0.0021849 0.00138654 0.00146687 0.0021849 0.00231437 0.00146687 0.00154764 0.00231437 0.00244049 0.00154764 0.0016251 0.00244049 0.00256085 0.0016251 0.00169677 0.00256085 0.00267407 0.00169677 0.00176198 0.00267407 0.00277973 0.00176198 0.00182124 0.00277973 0.00287791 0.00182124 0.00187537 0.00287791 0.00296882 0.00187537 0.00192495 0.00296882 0.00305257 0.00192495 0.00197021 0.00305257 0.00312911 0.00197021 0.00201106 0.00312911 0.00319821 0.00201106 0.00204717 0.00319821 0.00325944 0.00204717 0.0020779 0.00325944 0.00331211 0.0020779 0.00210235 0.00331211 0.00335533 0.00210235 0.00211931 0.00335533 0.00338799 0.00211931 0.00212726 0.00338799 0.00340884 0.00212726 0.00212447 0.00340884 0.00341669 0.00212447 0.00210894 0.00341669 0.0034108 0.00210894 0.00207862 0.0034108 0.0033918 0.00207862 0.00203194 0.0033918 0.00336306 0.00203194 0.00196993 0.00336306 0.00333127 0.00196993 0.00189936 0.00333127 0.0033027 0.00189936 0.00183079 0.0033027 0.00327384 0.00183079 0.00176321 0.00327384 0.00322898 0.00176321 0.00167551 0.00322898 0.00315479 0.00167551 0.00154992 0.00315479 0.00305447 0.00154992 0.00139304 0.00305447 0.00294036 0.00139304 0.00119561 0.00294036 0.00280812 0.00119561 0.000971069 0.00280812 0.00265151 0.000971069 0.00073663 0.00265151 0.00245879 0.00073663 0.000365917 0.00245879 0.00225164 0.000365917 3.83929e-05 0.00225164 0.00207912 3.83929e-05 -9.52707e-05 0.00207912 0.00196521 -9.52707e-05 -0.000137942 0.00196521 0.00190742 -0.000137942 -0.00014331 0.00190742 0.00188592 -0.00014331 -0.000130544 0.00188592 0.00188751 -0.000130544 -0.000106263 0.00188751 0.00190578 -0.000106263 -7.21773e-05 0.00190578 0.00193846 -7.21773e-05 -2.66569e-05 0.00193846 0.00198605 -2.66569e-05 3.53718e-05 0 2.30783e-05 0 8.73722e-06 2.30783e-05 5.36801e-05 8.73722e-06 2.12197e-05 5.36801e-05 8.94004e-05 2.12197e-05 3.62351e-05 8.94004e-05 0.000128846 3.62351e-05 5.31237e-05 0.000128846 0.000171753 5.31237e-05 7.19749e-05 0.000171753 0.000218746 7.19749e-05 9.35815e-05 0.000218746 0.00027095 9.35815e-05 0.000119239 0.00027095 0.000329613 0.000119239 0.000150466 0.000329613 0.00039577 0.000150466 0.000188677 0.00039577 0.00046995 0.000188677 0.000234814 0.00046995 0.000551919 0.000234814 0.000288962 0.000551919 0.000640497 0.000288962 0.000350004 0.000640497 0.000733515 0.000350004 0.000415418 0.000733515 0.000827988 0.000415418 0.000481355 0.000827988 0.000920565 0.000481355 0.000543083 0.000920565 0.00100827 0.000543083 0.000595892 0.00100827 0.00108945 0.000595892 0.000636468 0.00108945 0.00116465 0.000636468 0.000664591 0.00116465 0.00123674 0.000664591 0.000684318 0.00123674 0.00130974 0.000684318 0.000702889 0.00130974 0.00138654 0.000702889 0.000726435 0.00138654 0.00146687 0.000726435 0.000755492 0.00146687 0.00154764 0.000755492 0.000785444 0.00154764 0.0016251 0.000785444 0.000811363 0.0016251 0.00169677 0.000811363 0.000831275 0.00169677 0.00176198 0.000831275 0.000846016 0.00176198 0.00182124 0.000846016 0.000857573 0.00182124 0.00187537 0.000857573 0.00086754 0.00187537 0.00192495 0.00086754 0.000876609 0.00192495 0.00197021 0.000876609 0.000884818 0.00197021 0.00201106 0.000884818 0.000891896 0.00201106 0.00204717 0.000891896 0.000897362 0.00204717 0.0020779 0.000897362 0.00090046 0.0020779 0.00210235 0.00090046 0.000900123 0.00210235 0.00211931 0.000900123 0.000894995 0.00211931 0.00212726 0.000894995 0.000883482 0.00212726 0.00212447 0.000883482 0.000863782 0.00212447 0.00210894 0.000863782 0.000833835 0.00210894 0.00207862 0.000833835 0.00079113 0.00207862 0.00203194 0.00079113 0.000732412 0.00203194 0.00196993 0.000732412 0.000654369 0.00196993 0.00189936 0.000654369 0.000559818 0.00189936 0.00183079 0.000559818 0.000458355 0.00183079 0.00176321 0.000458355 0.000322576 0.00176321 0.00167551 0.000322576 0.000135615 0.00167551 0.00154992 0.000135615 -4.56871e-05 0.00154992 0.00139304 -4.56871e-05 -0.00022715 0.00139304 0.00119561 -0.00022715 -0.000521715 0.00119561 0.000971069 -0.000521715 -0.000899713 0.000971069 0.00073663 -0.000899713 -0.00128285 0.00073663 0.000365917 -0.00128285 -0.00190302 0.000365917 3.83929e-05 -0.00190302 -0.00215595 3.83929e-05 -9.52707e-05 -0.00215595 -0.00219703 -9.52707e-05 -0.000137942 -0.00219703 -0.00216681 -0.000137942 -0.00014331 -0.00216681 -0.00212568 -0.00014331 -0.000130544 -0.00212568 -0.00208379 -0.000130544 -0.000106263 -0.00208379 -0.00204071 -0.000106263 -7.21773e-05 -0.00204071 -0.00199369 -7.21773e-05 -2.66569e-05 -0.00199369 -0.00193763 -2.66569e-05 3.53718e-05 -0.00193763 -0.00186374 0 8.73722e-06 0 -6.21156e-06 8.73722e-06 2.12197e-05 -6.21156e-06 -1.24559e-05 2.12197e-05 3.62351e-05 -1.24559e-05 -1.8925e-05 3.62351e-05 5.31237e-05 -1.8925e-05 -2.55708e-05 5.31237e-05 7.19749e-05 -2.55708e-05 -3.18734e-05 7.19749e-05 9.35815e-05 -3.18734e-05 -3.67598e-05 9.35815e-05 0.000119239 -3.67598e-05 -3.86572e-05 0.000119239 0.000150466 -3.86572e-05 -3.56603e-05 0.000150466 0.000188677 -3.56603e-05 -2.5815e-05 0.000188677 0.000234814 -2.5815e-05 -7.53206e-06 0.000234814 0.000288962 -7.53206e-06 1.9881e-05 0.000288962 0.000350004 1.9881e-05 5.56498e-05 0.000350004 0.000415418 5.56498e-05 9.70891e-05 0.000415418 0.000481355 9.70891e-05 0.000139486 0.000481355 0.000543083 0.000139486 0.000176464 0.000543083 0.000595892 0.000176464 0.000200887 0.000595892 0.000636468 0.000200887 0.00020643 0.000636468 0.000664591 0.00020643 0.000190121 0.000664591 0.000684318 0.000190121 0.000155718 0.000684318 0.000702889 0.000155718 0.000114772 0.000702889 0.000726435 0.000114772 7.9757e-05 0.000726435 0.000755492 7.9757e-05 5.25744e-05 0.000755492 0.000785444 5.25744e-05 2.55628e-05 0.000785444 0.000811363 2.55628e-05 -7.18942e-06 0.000811363 0.000831275 -7.18942e-06 -4.5369e-05 0.000831275 0.000846016 -4.5369e-05 -8.52763e-05 0.000846016 0.000857573 -8.52763e-05 -0.000123188 0.000857573 0.00086754 -0.000123188 -0.00015714 0.00086754 0.000876609 -0.00015714 -0.000187134 0.