# vtk DataFile Version 3.0
#This file was generated by the deal.II library on 2021/2/10 at 1:02:58
ASCII
DATASET UNSTRUCTURED_GRID

POINTS 14400 double
0 -0.5 0
0.0166667 -0.5 0
0 -0.483333 0
0.0166667 -0.483333 0
0.0166667 -0.5 0
0.0333333 -0.5 0
0.0166667 -0.483333 0
0.0333333 -0.483333 0
0.0333333 -0.5 0
0.05 -0.5 0
0.0333333 -0.483333 0
0.05 -0.483333 0
0.05 -0.5 0
0.0666667 -0.5 0
0.05 -0.483333 0
0.0666667 -0.483333 0
0.0666667 -0.5 0
0.0833333 -0.5 0
0.0666667 -0.483333 0
0.0833333 -0.483333 0
0.0833333 -0.5 0
0.1 -0.5 0
0.0833333 -0.483333 0
0.1 -0.483333 0
0.1 -0.5 0
0.116667 -0.5 0
0.1 -0.483333 0
0.116667 -0.483333 0
0.116667 -0.5 0
0.133333 -0.5 0
0.116667 -0.483333 0
0.133333 -0.483333 0
0.133333 -0.5 0
0.15 -0.5 0
0.133333 -0.483333 0
0.15 -0.483333 0
0.15 -0.5 0
0.166667 -0.5 0
0.15 -0.483333 0
0.166667 -0.483333 0
0.166667 -0.5 0
0.183333 -0.5 0
0.166667 -0.483333 0
0.183333 -0.483333 0
0.183333 -0.5 0
0.2 -0.5 0
0.183333 -0.483333 0
0.2 -0.483333 0
0.2 -0.5 0
0.216667 -0.5 0
0.2 -0.483333 0
0.216667 -0.483333 0
0.216667 -0.5 0
0.233333 -0.5 0
0.216667 -0.483333 0
0.233333 -0.483333 0
0.233333 -0.5 0
0.25 -0.5 0
0.233333 -0.483333 0
0.25 -0.483333 0
0.25 -0.5 0
0.266667 -0.5 0
0.25 -0.483333 0
0.266667 -0.483333 0
0.266667 -0.5 0
0.283333 -0.5 0
0.266667 -0.483333 0
0.283333 -0.483333 0
0.283333 -0.5 0
0.3 -0.5 0
0.283333 -0.483333 0
0.3 -0.483333 0
0.3 -0.5 0
0.316667 -0.5 0
0.3 -0.483333 0
0.316667 -0.483333 0
0.316667 -0.5 0
0.333333 -0.5 0
0.316667 -0.483333 0
0.333333 -0.483333 0
0.333333 -0.5 0
0.35 -0.5 0
0.333333 -0.483333 0
0.35 -0.483333 0
0.35 -0.5 0
0.366667 -0.5 0
0.35 -0.483333 0
0.366667 -0.483333 0
0.366667 -0.5 0
0.383333 -0.5 0
0.366667 -0.483333 0
0.383333 -0.483333 0
0.383333 -0.5 0
0.4 -0.5 0
0.383333 -0.483333 0
0.4 -0.483333 0
0.4 -0.5 0
0.416667 -0.5 0
0.4 -0.483333 0
0.416667 -0.483333 0
0.416667 -0.5 0
0.433333 -0.5 0
0.416667 -0.483333 0
0.433333 -0.483333 0
0.433333 -0.5 0
0.45 -0.5 0
0.433333 -0.483333 0
0.45 -0.483333 0
0.45 -0.5 0
0.466667 -0.5 0
0.45 -0.483333 0
0.466667 -0.483333 0
0.466667 -0.5 0
0.483333 -0.5 0
0.466667 -0.483333 0
0.483333 -0.483333 0
0.483333 -0.5 0
0.5 -0.5 0
0.483333 -0.483333 0
0.5 -0.483333 0
0.5 -0.5 0
0.516667 -0.5 0
0.5 -0.483333 0
0.516667 -0.483333 0
0.516667 -0.5 0
0.533333 -0.5 0
0.516667 -0.483333 0
0.533333 -0.483333 0
0.533333 -0.5 0
0.55 -0.5 0
0.533333 -0.483333 0
0.55 -0.483333 0
0.55 -0.5 0
0.566667 -0.5 0
0.55 -0.483333 0
0.566667 -0.483333 0
0.566667 -0.5 0
0.583333 -0.5 0
0.566667 -0.483333 0
0.583333 -0.483333 0
0.583333 -0.5 0
0.6 -0.5 0
0.583333 -0.483333 0
0.6 -0.483333 0
0.6 -0.5 0
0.616667 -0.5 0
0.6 -0.483333 0
0.616667 -0.483333 0
0.616667 -0.5 0
0.633333 -0.5 0
0.616667 -0.483333 0
0.633333 -0.483333 0
0.633333 -0.5 0
0.65 -0.5 0
0.633333 -0.483333 0
0.65 -0.483333 0
0.65 -0.5 0
0.666667 -0.5 0
0.65 -0.483333 0
0.666667 -0.483333 0
0.666667 -0.5 0
0.683333 -0.5 0
0.666667 -0.483333 0
0.683333 -0.483333 0
0.683333 -0.5 0
0.7 -0.5 0
0.683333 -0.483333 0
0.7 -0.483333 0
0.7 -0.5 0
0.716667 -0.5 0
0.7 -0.483333 0
0.716667 -0.483333 0
0.716667 -0.5 0
0.733333 -0.5 0
0.716667 -0.483333 0
0.733333 -0.483333 0
0.733333 -0.5 0
0.75 -0.5 0
0.733333 -0.483333 0
0.75 -0.483333 0
0.75 -0.5 0
0.766667 -0.5 0
0.75 -0.483333 0
0.766667 -0.483333 0
0.766667 -0.5 0
0.783333 -0.5 0
0.766667 -0.483333 0
0.783333 -0.483333 0
0.783333 -0.5 0
0.8 -0.5 0
0.783333 -0.483333 0
0.8 -0.483333 0
0.8 -0.5 0
0.816667 -0.5 0
0.8 -0.483333 0
0.816667 -0.483333 0
0.816667 -0.5 0
0.833333 -0.5 0
0.816667 -0.483333 0
0.833333 -0.483333 0
0.833333 -0.5 0
0.85 -0.5 0
0.833333 -0.483333 0
0.85 -0.483333 0
0.85 -0.5 0
0.866667 -0.5 0
0.85 -0.483333 0
0.866667 -0.483333 0
0.866667 -0.5 0
0.883333 -0.5 0
0.866667 -0.483333 0
0.883333 -0.483333 0
0.883333 -0.5 0
0.9 -0.5 0
0.883333 -0.483333 0
0.9 -0.483333 0
0.9 -0.5 0
0.916667 -0.5 0
0.9 -0.483333 0
0.916667 -0.483333 0
0.916667 -0.5 0
0.933333 -0.5 0
0.916667 -0.483333 0
0.933333 -0.483333 0
0.933333 -0.5 0
0.95 -0.5 0
0.933333 -0.483333 0
0.95 -0.483333 0
0.95 -0.5 0
0.966667 -0.5 0
0.95 -0.483333 0
0.966667 -0.483333 0
0.966667 -0.5 0
0.983333 -0.5 0
0.966667 -0.483333 0
0.983333 -0.483333 0
0.983333 -0.5 0
1 -0.5 0
0.983333 -0.483333 0
1 -0.483333 0
0 -0.483333 0
0.0166667 -0.483333 0
0 -0.466667 0
0.0166667 -0.466667 0
0.0166667 -0.483333 0
0.0333333 -0.483333 0
0.0166667 -0.466667 0
0.0333333 -0.466667 0
0.0333333 -0.483333 0
0.05 -0.483333 0
0.0333333 -0.466667 0
0.05 -0.466667 0
0.05 -0.483333 0
0.0666667 -0.483333 0
0.05 -0.466667 0
0.0666667 -0.466667 0
0.0666667 -0.483333 0
0.0833333 -0.483333 0
0.0666667 -0.466667 0
0.0833333 -0.466667 0
0.0833333 -0.483333 0
0.1 -0.483333 0
0.0833333 -0.466667 0
0.1 -0.466667 0
0.1 -0.483333 0
0.116667 -0.483333 0
0.1 -0.466667 0
0.116667 -0.466667 0
0.116667 -0.483333 0
0.133333 -0.483333 0
0.116667 -0.466667 0
0.133333 -0.466667 0
0.133333 -0.483333 0
0.15 -0.483333 0
0.133333 -0.466667 0
0.15 -0.466667 0
0.15 -0.483333 0
0.166667 -0.483333 0
0.15 -0.466667 0
0.166667 -0.466667 0
0.166667 -0.483333 0
0.183333 -0.483333 0
0.166667 -0.466667 0
0.183333 -0.466667 0
0.183333 -0.483333 0
0.2 -0.483333 0
0.183333 -0.466667 0
0.2 -0.466667 0
0.2 -0.483333 0
0.216667 -0.483333 0
0.2 -0.466667 0
0.216667 -0.466667 0
0.216667 -0.483333 0
0.233333 -0.483333 0
0.216667 -0.466667 0
0.233333 -0.466667 0
0.233333 -0.483333 0
0.25 -0.483333 0
0.233333 -0.466667 0
0.25 -0.466667 0
0.25 -0.483333 0
0.266667 -0.483333 0
0.25 -0.466667 0
0.266667 -0.466667 0
0.266667 -0.483333 0
0.283333 -0.483333 0
0.266667 -0.466667 0
0.283333 -0.466667 0
0.283333 -0.483333 0
0.3 -0.483333 0
0.283333 -0.466667 0
0.3 -0.466667 0
0.3 -0.483333 0
0.316667 -0.483333 0
0.3 -0.466667 0
0.316667 -0.466667 0
0.316667 -0.483333 0
0.333333 -0.483333 0
0.316667 -0.466667 0
0.333333 -0.466667 0
0.333333 -0.483333 0
0.35 -0.483333 0
0.333333 -0.466667 0
0.35 -0.466667 0
0.35 -0.483333 0
0.366667 -0.483333 0
0.35 -0.466667 0
0.366667 -0.466667 0
0.366667 -0.483333 0
0.383333 -0.483333 0
0.366667 -0.466667 0
0.383333 -0.466667 0
0.383333 -0.483333 0
0.4 -0.483333 0
0.383333 -0.466667 0
0.4 -0.466667 0
0.4 -0.483333 0
0.416667 -0.483333 0
0.4 -0.466667 0
0.416667 -0.466667 0
0.416667 -0.483333 0
0.433333 -0.483333 0
0.416667 -0.466667 0
0.433333 -0.466667 0
0.433333 -0.483333 0
0.45 -0.483333 0
0.433333 -0.466667 0
0.45 -0.466667 0
0.45 -0.483333 0
0.466667 -0.483333 0
0.45 -0.466667 0
0.466667 -0.466667 0
0.466667 -0.483333 0
0.483333 -0.483333 0
0.466667 -0.466667 0
0.483333 -0.466667 0
0.483333 -0.483333 0
0.5 -0.483333 0
0.483333 -0.466667 0
0.5 -0.466667 0
0.5 -0.483333 0
0.516667 -0.483333 0
0.5 -0.466667 0
0.516667 -0.466667 0
0.516667 -0.483333 0
0.533333 -0.483333 0
0.516667 -0.466667 0
0.533333 -0.466667 0
0.533333 -0.483333 0
0.55 -0.483333 0
0.533333 -0.466667 0
0.55 -0.466667 0
0.55 -0.483333 0
0.566667 -0.483333 0
0.55 -0.466667 0
0.566667 -0.466667 0
0.566667 -0.483333 0
0.583333 -0.483333 0
0.566667 -0.466667 0
0.583333 -0.466667 0
0.583333 -0.483333 0
0.6 -0.483333 0
0.583333 -0.466667 0
0.6 -0.466667 0
0.6 -0.483333 0
0.616667 -0.483333 0
0.6 -0.466667 0
0.616667 -0.466667 0
0.616667 -0.483333 0
0.633333 -0.483333 0
0.616667 -0.466667 0
0.633333 -0.466667 0
0.633333 -0.483333 0
0.65 -0.483333 0
0.633333 -0.466667 0
0.65 -0.466667 0
0.65 -0.483333 0
0.666667 -0.483333 0
0.65 -0.466667 0
0.666667 -0.466667 0
0.666667 -0.483333 0
0.683333 -0.483333 0
0.666667 -0.466667 0
0.683333 -0.466667 0
0.683333 -0.483333 0
0.7 -0.483333 0
0.683333 -0.466667 0
0.7 -0.466667 0
0.7 -0.483333 0
0.716667 -0.483333 0
0.7 -0.466667 0
0.716667 -0.466667 0
0.716667 -0.483333 0
0.733333 -0.483333 0
0.716667 -0.466667 0
0.733333 -0.466667 0
0.733333 -0.483333 0
0.75 -0.483333 0
0.733333 -0.466667 0
0.75 -0.466667 0
0.75 -0.483333 0
0.766667 -0.483333 0
0.75 -0.466667 0
0.766667 -0.466667 0
0.766667 -0.483333 0
0.783333 -0.483333 0
0.766667 -0.466667 0
0.783333 -0.466667 0
0.783333 -0.483333 0
0.8 -0.483333 0
0.783333 -0.466667 0
0.8 -0.466667 0
0.8 -0.483333 0
0.816667 -0.483333 0
0.8 -0.466667 0
0.816667 -0.466667 0
0.816667 -0.483333 0
0.833333 -0.483333 0
0.816667 -0.466667 0
0.833333 -0.466667 0
0.833333 -0.483333 0
0.85 -0.483333 0
0.833333 -0.466667 0
0.85 -0.466667 0
0.85 -0.483333 0
0.866667 -0.483333 0
0.85 -0.466667 0
0.866667 -0.466667 0
0.866667 -0.483333 0
0.883333 -0.483333 0
0.866667 -0.466667 0
0.883333 -0.466667 0
0.883333 -0.483333 0
0.9 -0.483333 0
0.883333 -0.466667 0
0.9 -0.466667 0
0.9 -0.483333 0
0.916667 -0.483333 0
0.9 -0.466667 0
0.916667 -0.466667 0
0.916667 -0.483333 0
0.933333 -0.483333 0
0.916667 -0.466667 0
0.933333 -0.466667 0
0.933333 -0.483333 0
0.95 -0.483333 0
0.933333 -0.466667 0
0.95 -0.466667 0
0.95 -0.483333 0
0.966667 -0.483333 0
0.95 -0.466667 0
0.966667 -0.466667 0
0.966667 -0.483333 0
0.983333 -0.483333 0
0.966667 -0.466667 0
0.983333 -0.466667 0
0.983333 -0.483333 0
1 -0.483333 0
0.983333 -0.466667 0
1 -0.466667 0
0 -0.466667 0
0.0166667 -0.466667 0
0 -0.45 0
0.0166667 -0.45 0
0.0166667 -0.466667 0
0.0333333 -0.466667 0
0.0166667 -0.45 0
0.0333333 -0.45 0
0.0333333 -0.466667 0
0.05 -0.466667 0
0.0333333 -0.45 0
0.05 -0.45 0
0.05 -0.466667 0
0.0666667 -0.466667 0
0.05 -0.45 0
0.0666667 -0.45 0
0.0666667 -0.466667 0
0.0833333 -0.466667 0
0.0666667 -0.45 0
0.0833333 -0.45 0
0.0833333 -0.466667 0
0.1 -0.466667 0
0.0833333 -0.45 0
0.1 -0.45 0
0.1 -0.466667 0
0.116667 -0.466667 0
0.1 -0.45 0
0.116667 -0.45 0
0.116667 -0.466667 0
0.133333 -0.466667 0
0.116667 -0.45 0
0.133333 -0.45 0
0.133333 -0.466667 0
0.15 -0.466667 0
0.133333 -0.45 0
0.15 -0.45 0
0.15 -0.466667 0
0.166667 -0.466667 0
0.15 -0.45 0
0.166667 -0.45 0
0.166667 -0.466667 0
0.183333 -0.466667 0
0.166667 -0.45 0
0.183333 -0.45 0
0.183333 -0.466667 0
0.2 -0.466667 0
0.183333 -0.45 0
0.2 -0.45 0
0.2 -0.466667 0
0.216667 -0.466667 0
0.2 -0.45 0
0.216667 -0.45 0
0.216667 -0.466667 0
0.233333 -0.466667 0
0.216667 -0.45 0
0.233333 -0.45 0
0.233333 -0.466667 0
0.25 -0.466667 0
0.233333 -0.45 0
0.25 -0.45 0
[...]
POINT_DATA 14400
SCALARS x1_displacement double 1
LOOKUP_TABLE default
0 0.000221508 0 0.000217763 0.000221508 0.000454381 0.000217763 0.000495025 0.000454381 0.000727439 0.000495025 0.000794428 0.000727439 0.00104679 0.000794428 0.00111917 0.00104679 0.00140838 0.00111917 0.00147092 0.00140838 0.00180766 0.00147092 0.00184933 0.00180766 0.00224019 0.00184933 0.00225291 0.00224019 0.00270195 0.00225291 0.00267965 0.00270195 0.00318929 0.00267965 0.00312733 0.00318929 0.00369889 0.00312733 0.00359363 0.00369889 0.00422767 0.00359363 0.0040763 0.00422767 0.00477277 0.0040763 0.00457306 0.00477277 0.00533149 0.00457306 0.00508174 0.00533149 0.00590128 0.00508174 0.00560017 0.00590128 0.00647966 0.00560017 0.00612627 0.00647966 0.00706429 0.00612627 0.00665798 0.00706429 0.00765286 0.00665798 0.00719329 0.00765286 0.00824316 0.00719329 0.00773026 0.00824316 0.00883303 0.00773026 0.00826697 0.00883303 0.00942039 0.00826697 0.00880155 0.00942039 0.0100032 0.00880155 0.0093322 0.0100032 0.0105795 0.0093322 0.00985717 0.0105795 0.0111474 0.00985717 0.0103748 0.0111474 0.0117052 0.0103748 0.0108834 0.0117052 0.012251 0.0108834 0.0113815 0.012251 0.0127834 0.0113815 0.0118677 0.0127834 0.0133008 0.0118677 0.0123406 0.0133008 0.0138018 0.0123406 0.012799 0.0138018 0.0142852 0.012799 0.0132417 0.0142852 0.0147499 0.0132417 0.0136677 0.0147499 0.0151948 0.0136677 0.0140761 0.0151948 0.0156192 0.0140761 0.0144662 0.0156192 0.0160222 0.0144662 0.0148373 0.0160222 0.0164033 0.0148373 0.0151888 0.0164033 0.0167622 0.0151888 0.0155204 0.0167622 0.0170984 0.0155204 0.0158318 0.0170984 0.0174119 0.0158318 0.0161228 0.0174119 0.0177026 0.0161228 0.0163934 0.0177026 0.0179707 0.0163934 0.0166437 0.0179707 0.0182163 0.0166437 0.0168738 0.0182163 0.0184398 0.0168738 0.0170841 0.0184398 0.0186415 0.0170841 0.0172749 0.0186415 0.0188222 0.0172749 0.0174467 0.0188222 0.0189823 0.0174467 0.0176001 0.0189823 0.0191227 0.0176001 0.0177356 0.0191227 0.019244 0.0177356 0.0178541 0.019244 0.0193474 0.0178541 0.0179564 0.0193474 0.0194337 0.0179564 0.0180433 0.0194337 0.0195041 0.0180433 0.0181159 0.0195041 0.0195597 0.0181159 0.0181751 0.0195597 0.019602 0.0181751 0.0182222 0.019602 0.0196322 0.0182222 0.0182583 0.0196322 0.0196521 0.0182583 0.0182849 0.0196521 0.0196634 0.0182849 0.0183033 0.0196634 0.0196678 0.0183033 0.018315 0.0196678 0.0196676 0.018315 0.0183216 0.0196676 0.0196647 0.0183216 0.0183245 0.0196647 0.0196613 0.0183245 0.0183254 0.0196613 0.0196591 0.0183254 0.0183254 0.0196591 0.0196585 0.0183254 0.0183256 0 0.000217763 0 0.000222628 0.000217763 0.000495025 0.000222628 0.000495428 0.000495025 0.000794428 0.000495428 0.000799387 0.000794428 0.00111917 0.000799387 0.00112338 0.00111917 0.00147092 0.00112338 0.00146617 0.00147092 0.00184933 0.00146617 0.00182765 0.00184933 0.00225291 0.00182765 0.0022075 0.00225291 0.00267965 0.0022075 0.0026049 0.00267965 0.00312733 0.0026049 0.0030187 0.00312733 0.00359363 0.0030187 0.00344747 0.00359363 0.0040763 0.00344747 0.00388965 0.0040763 0.00457306 0.00388965 0.00434359 0.00457306 0.00508174 0.00434359 0.00480758 0.00508174 0.00560017 0.00480758 0.00527991 0.00560017 0.00612627 0.00527991 0.00575884 0.00612627 0.00665798 0.00575884 0.00624264 0.00665798 0.00719329 0.00624264 0.00672958 0.00719329 0.00773026 0.00672958 0.00721798 0.00773026 0.00826697 0.00721798 0.00770616 0.00826697 0.00880155 0.00770616 0.00819248 0.00880155 0.0093322 0.00819248 0.00867532 0.0093322 0.00985717 0.00867532 0.00915315 0.00985717 0.0103748 0.00915315 0.00962445 0.0103748 0.0108834 0.00962445 0.0100878 0.0108834 0.0113815 0.0100878 0.0105418 0.0113815 0.0118677 0.0105418 0.0109851 0.0118677 0.0123406 0.0109851 0.0114166 0.0123406 0.012799 0.0114166 0.0118351 0.012799 0.0132417 0.0118351 0.0122397 0.0132417 0.0136677 0.0122397 0.0126293 0.0136677 0.0140761 0.0126293 0.0130032 0.0140761 0.0144662 0.0130032 0.0133606 0.0144662 0.0148373 0.0133606 0.013701 0.0148373 0.0151888 0.013701 0.0140239 0.0151888 0.0155204 0.0140239 0.014329 0.0155204 0.0158318 0.014329 0.0146159 0.0158318 0.0161228 0.0146159 0.0148845 0.0161228 0.0163934 0.0148845 0.0151348 0.0163934 0.0166437 0.0151348 0.0153669 0.0166437 0.0168738 0.0153669 0.0155809 0.0168738 0.0170841 0.0155809 0.015777 0.0170841 0.0172749 0.015777 0.0159556 0.0172749 0.0174467 0.0159556 0.0161172 0.0174467 0.0176001 0.0161172 0.0162621 0.0176001 0.0177356 0.0162621 0.0163911 0.0177356 0.0178541 0.0163911 0.0165047 0.0178541 0.0179564 0.0165047 0.0166036 0.0179564 0.0180433 0.0166036 0.0166887 0.0180433 0.0181159 0.0166887 0.0167608 0.0181159 0.0181751 0.0167608 0.0168208 0.0181751 0.0182222 0.0168208 0.0168696 0.0182222 0.0182583 0.0168696 0.0169083 0.0182583 0.0182849 0.0169083 0.016938 0.0182849 0.0183033 0.016938 0.0169598 0.0183033 0.018315 0.0169598 0.0169749 0.018315 0.0183216 0.0169749 0.0169845 0.0183216 0.0183245 0.0169845 0.0169898 0.0183245 0.0183254 0.0169898 0.0169921 0.0183254 0.0183254 0.0169921 0.0169929 0.0183254 0.0183256 0.0169929 0.0169937 0 0.000222628 0 0.000217366 0.000222628 0.000495428 0.000217366 0.000479936 0.000495428 0.000799387 0.000479936 0.000772892 0.000799387 0.00112338 0.000772892 0.00108658 0.00112338 0.00146617 0.00108658 0.00141616 0.00146617 0.00182765 0.00141616 0.00176009 0.00182765 0.0022075 0.00176009 0.00211775 0.0022075 0.0026049 0.00211775 0.00248865 0.0026049 0.0030187 0.00248865 0.00287213 0.0030187 0.00344747 0.00287213 0.00326734 0.00344747 0.00388965 0.00326734 0.00367323 0.00388965 0.00434359 0.00367323 0.00408866 0.00434359 0.00480758 0.00408866 0.00451234 0.00480758 0.00527991 0.00451234 0.00494293 0.00527991 0.00575884 0.00494293 0.00537903 0.00575884 0.00624264 0.00537903 0.00581921 0.00624264 0.00672958 0.00581921 0.00626204 0.00672958 0.00721798 0.00626204 0.00670604 0.00721798 0.00770616 0.00670604 0.00714977 0.00770616 0.00819248 0.00714977 0.0075918 0.00819248 0.00867532 0.0075918 0.0080307 0.00867532 0.00915315 0.0080307 0.0084651 0.00915315 0.00962445 0.0084651 0.00889366 0.00962445 0.0100878 0.00889366 0.00931507 0.0100878 0.0105418 0.00931507 0.00972811 0.0105418 0.0109851 0.00972811 0.0101316 0.0109851 0.0114166 0.0101316 0.0105245 0.0114166 0.0118351 0.0105245 0.0109057 0.0118351 0.0122397 0.0109057 0.0112743 0.0122397 0.0126293 0.0112743 0.0116295 0.0126293 0.0130032 0.0116295 0.0119706 0.0130032 0.0133606 0.0119706 0.0122969 0.0133606 0.013701 0.0122969 0.0126079 0.013701 0.0140239 0.0126079 0.0129031 0.0140239 0.014329 0.0129031 0.0131822 0.014329 0.0146159 0.0131822 0.013445 0.0146159 0.0148845 0.013445 0.0136914 0.0148845 0.0151348 0.0136914 0.0139213 0.0151348 0.0153669 0.0139213 0.0141348 0.0153669 0.0155809 0.0141348 0.014332 0.0155809 0.015777 0.014332 0.0145132 0.015777 0.0159556 0.0145132 0.0146786 0.0159556 0.0161172 0.0146786 0.0148286 0.0161172 0.0162621 0.0148286 0.0149638 0.0162621 0.0163911 0.0149638 0.0150845 0.0163911 0.0165047 0.0150845 0.0151914 0.0165047 0.0166036 0.0151914 0.0152851 0.0166036 0.0166887 0.0152851 0.0153662 0.0166887 0.0167608 0.0153662 0.0154355 0.0167608 0.0168208 0.0154355 0.0154937 0.0168208 0.0168696 0.0154937 0.0155417 0.0168696 0.0169083 0.0155417 0.0155802 0.0169083 0.016938 0.0155802 0.0156102 0.016938 0.0169598 0.0156102 0.0156326 0.0169598 0.0169749 0.0156326 0.0156482 0.0169749 0.0169845 0.0156482 0.0156582 0.0169845 0.0169898 0.0156582 0.0156636 0.0169898 0.0169921 0.0156636 0.0156656 0.0169921 0.0169929 0.0156656 0.0156658 0.0169929 0.0169937 0.0156658 0.0156665 0 0.000217366 0 0.000206673 0.000217366 0.000479936 0.000206673 0.000453206 0.000479936 0.000772892 0.000453206 0.000728901 0.000772892 0.00108658 0.000728901 0.00102516 0.00108658 0.00141616 0.00102516 0.00133665 0.00141616 0.00176009 0.00133665 0.00166053 0.00176009 0.00211775 0.00166053 0.00199546 0.00211775 0.00248865 0.00199546 0.00234071 0.00248865 0.00287213 0.00234071 0.00269571 0.00287213 0.00326734 0.00269571 0.00305984 0.00326734 0.00367323 0.00305984 0.00343239 0.00367323 0.00408866 0.00343239 0.00381253 0.00408866 0.00451234 0.00381253 0.0041993 0.00451234 0.00494293 0.0041993 0.00459168 0.00494293 0.00537903 0.00459168 0.00498856 0.00537903 0.00581921 0.00498856 0.00538876 0.00581921 0.00626204 0.00538876 0.00579108 0.00626204 0.00670604 0.00579108 0.00619428 0.00670604 0.00714977 0.00619428 0.00659712 0.00714977 0.0075918 0.00659712 0.00699834 0.0075918 0.0080307 0.00699834 0.00739668 0.0080307 0.0084651 0.00739668 0.00779094 0.0084651 0.00889366 0.00779094 0.0081799 0.00889366 0.00931507 0.0081799 0.0085624 0.00931507 0.00972811 0.0085624 0.00893734 0.00972811 0.0101316 0.00893734 0.00930365 0.0101316 0.0105245 0.00930365 0.00966034 0.0105245 0.0109057 0.00966034 0.0100065 0.0109057 0.0112743 0.0100065 0.0103413 0.0112743 0.0116295 0.0103413 0.0106639 0.0116295 0.0119706 0.0106639 0.0109738 0.0119706 0.0122969 0.0109738 0.0112702 0.0122969 0.0126079 0.0112702 0.0115528 0.0126079 0.0129031 0.0115528 0.0118212 0.0129031 0.0131822 0.0118212 0.012075 0.0131822 0.013445 0.012075 0.0123141 0.013445 0.0136914 0.0123141 0.0125383 0.0136914 0.0139213 0.0125383 0.0127477 0.0139213 0.0141348 0.0127477 0.0129423 0.0141348 0.014332 0.0129423 0.0131222 0.014332 0.0145132 0.0131222 0.0132877 0.0145132 0.0146786 0.0132877 0.013439 0.0146786 0.0148286 0.013439 0.0135765 0.0148286 0.0149638 0.0135765 0.0137006 0.0149638 0.0150845 0.0137006 0.0138117 0.0150845 0.0151914 0.0138117 0.0139103 0.0151914 0.0152851 0.0139103 0.013997 0.0152851 0.0153662 0.013997 0.0140724 0.0153662 0.0154355 0.0140724 0.014137 0.0154355 0.0154937 0.014137 0.0141914 0.0154937 0.0155417 0.0141914 0.0142364 0.0155417 0.0155802 0.0142364 0.0142726 0.0155802 0.0156102 0.0142726 0.0143006 0.0156102 0.0156326 0.0143006 0.0143214 0.0156326 0.0156482 0.0143214 0.0143355 0.0156482 0.0156582 0.0143355 0.014344 0.0156582 0.0156636 0.014344 0.0143478 0.0156636 0.0156656 0.0143478 0.0143482 0.0156656 0.0156658 0.0143482 0.014347 0.0156658 0.0156665 0.014347 0.0143466 0 0.000206673 0 0.00019202 0.000206673 0.000453206 0.00019202 0.000419313 0.000453206 0.000728901 0.000419313 0.000673806 0.000728901 0.00102516 0.000673806 0.000948416 0.00102516 0.00133665 0.000948416 0.00123794 0.00133665 0.00166053 0.00123794 0.00153906 0.00166053 0.00199546 0.00153906 0.00184986 0.00199546 0.00234071 0.00184986 0.00216922 0.00234071 0.00269571 0.00216922 0.00249642 0.00269571 0.00305984 0.00249642 0.00283087 0.00305984 0.00343239 0.00283087 0.00317199 0.00343239 0.00381253 0.00317199 0.00351914 0.00381253 0.0041993 0.00351914 0.0038716 0.0041993 0.00459168 0.0038716 0.00422855 0.00459168 0.00498856 0.00422855 0.00458911 0.00498856 0.00538876 0.00458911 0.00495232 0.00538876 0.00579108 0.00495232 0.00531719 0.00579108 0.00619428 0.00531719 0.00568265 0.00619428 0.00659712 0.00568265 0.00604764 0.00659712 0.00699834 0.00604764 0.00641105 0.00699834 0.00739668 0.00641105 0.00677179 0.00739668 0.00779094 0.00677179 0.00712876 0.00779094 0.0081799 0.00712876 0.00748089 0.0081799 0.0085624 0.00748089 0.00782713 0.0085624 0.00893734 0.00782713 0.00816646 0.00893734 0.00930365 0.00816646 0.00849794 0.00930365 0.00966034 0.00849794 0.00882064 0.00966034 0.0100065 0.00882064 0.00913374 0.0100065 0.0103413 0.00913374 0.00943647 0.0103413 0.0106639 0.00943647 0.00972814 0.0106639 0.0109738 0.00972814 0.0100081 0.0109738 0.0112702 0.0100081 0.010276 0.0112702 0.0115528 0.010276 0.0105312 0.0115528 0.0118212 0.0105312 0.0107734 0.0118212 0.012075 0.0107734 0.0110025 0.012075 0.0123141 0.0110025 0.0112181 0.0123141 0.0125383 0.0112181 0.0114204 0.0125383 0.0127477 0.0114204 0.0116091 0.0127477 0.0129423 0.0116091 0.0117846 0.0129423 0.0131222 0.0117846 0.0119467 0.0131222 0.0132877 0.0119467 0.0120959 0.0132877 0.013439 0.0120959 0.0122323 0.013439 0.0135765 0.0122323 0.0123563 0.0135765 0.0137006 0.0123563 0.0124683 0.0137006 0.0138117 0.0124683 0.0125686 0.0138117 0.0139103 0.0125686 0.0126576 0.0139103 0.013997 0.0126576 0.0127359 0.013997 0.0140724 0.0127359 0.012804 0.0140724 0.014137 0.012804 0.0128622 0.014137 0.0141914 0.0128622 0.0129112 0.0141914 0.0142364 0.0129112 0.0129515 0.0142364 0.0142726 0.0129515 0.0129836 0.0142726 0.0143006 0.0129836 0.0130081 0.0143006 0.0143214 0.0130081 0.0130256 0.0143214 0.0143355 0.0130256 0.0130368 0.0143355 0.014344 0.0130368 0.0130424 0.014344 0.0143478 0.0130424 0.0130435 0.0143478 0.0143482 0.0130435 0.0130414 0.0143482 0.014347 0.0130414 0.0130379 0.014347 0.0143466 0.0130379 0.0130355 0 0.00019202 0 0.000174604 0.00019202 0.000419313 0.000174604 0.000380466 0.000419313 0.000673806 0.000380466 0.000611423 0.000673806 0.000948416 0.000611423 0.00086168 0.000948416 0.00123794 0.00086168 0.00112656 0.00123794 0.00153906 0.00112656 0.00140268 0.00153906 0.00184986 0.00140268 0.00168783 0.00184986 0.00216922 0.00168783 0.00198057 0.00216922 0.00249642 0.00198057 0.00227999 0.00249642 0.00283087 0.00227999 0.00258541 0.00283087 0.00317199 0.00258541 0.00289628 0.00317199 0.00351914 0.00289628 0.00321202 0.00351914 0.0038716 0.00321202 0.00353204 0.0038716 0.00422855 0.00353204 0.00385569 0.00422855 0.00458911 0.00385569 0.00418225 0.00458911 0.00495232 0.00418225 0.00451091 0.00495232 0.00531719 0.00451091 0.00484083 0.00531719 0.00568265 0.00484083 0.00517112 0.00568265 0.00604764 0.00517112 0.00550084 0.00604764 0.00641105 0.00550084 0.00582902 0.00641105 0.00677179 0.00582902 0.00615469 0.00677179 0.00712876 0.00615469 0.00647685 0.00712876 0.00748089 0.00647685 0.00679455 0.00748089 0.00782713 0.00679455 0.00710683 0.00782713 0.00816646 0.00710683 0.00741275 0.00816646 0.00849794 0.00741275 0.00771145 0.00849794 0.00882064 0.00771145 0.00800209 0.00882064 0.00913374 0.00800209 0.0082839 0.00913374 0.00943647 0.0082839 0.00855617 0.00943647 0.00972814 0.00855617 0.00881828 0.00972814 0.0100081 0.00881828 0.00906969 0.0100081 0.010276 0.00906969 0.00930991 0.010276 0.0105312 0.00930991 0.00953858 0.0105312 0.0107734 0.00953858 0.00975539 0.0107734 0.0110025 0.00975539 0.00996014 0.0110025 0.0112181 0.00996014 0.0101527 0.0112181 0.0114204 0.0101527 0.010333 0.0114204 0.0116091 0.010333 0.0105012 0.0116091 0.0117846 0.0105012 0.0106572 0.0117846 0.0119467 0.0106572 0.0108012 0.0119467 0.0120959 0.0108012 0.0109336 0.0120959 0.0122323 0.0109336 0.0110544 0.0122323 0.0123563 0.0110544 0.0111641 0.0123563 0.0124683 0.0111641 0.011263 0.0124683 0.0125686 0.011263 0.0113514 0.0125686 0.0126576 0.0113514 0.0114298 0.0126576 0.0127359 0.0114298 0.0114985 0.0127359 0.012804 0.0114985 0.0115579 0.012804 0.0128622 0.0115579 0.0116085 0.0128622 0.0129112 0.0116085 0.0116507 0.0129112 0.0129515 0.0116507 0.011685 0.0129515 0.0129836 0.011685 0.0117116 0.0129836 0.0130081 0.0117116 0.0117313 0.0130081 0.0130256 0.0117313 0.0117443 0.0130256 0.0130368 0.0117443 0.0117514 0.0130368 0.0130424 0.0117514 0.0117533 0.0130424 0.0130435 0.0117533 0.0117509 0.0130435 0.0130414 0.0117509 0.0117455 0.0130414 0.0130379 0.0117455 0.0117389 0.0130379 0.0130355 0.0117389 0.0117336 0 0.000174604 0 0.000155167 0.000174604 0.000380466 0.000155167 0.000338104 0.000380466 0.000611423 0.000338104 0.000544032 0.000611423 0.00086168 0.000544032 0.000768241 0.00086168 0.00112656 0.000768241 0.00100666 0.00112656 0.00140268 0.00100666 0.00125611 0.00140268 0.00168783 0.00125611 0.00151427 0.00168783 0.00198057 0.00151427 0.00177957 0.00198057 0.00227999 0.00177957 0.00205091 0.00227999 0.00258541 0.00205091 0.00232751 0.00258541 0.00289628 0.00232751 0.00260876 0.00289628 0.00321202 0.00260876 0.00289412 0.00321202 0.00353204 0.00289412 0.00318305 0.00353204 0.00385569 0.00318305 0.003475 0.00385569 0.00418225 0.003475 0.00376933 0.00418225 0.00451091 0.00376933 0.00406539 0.00451091 0.00484083 0.00406539 0.00436242 0.00484083 0.00517112 0.00436242 0.00465965 0.00517112 0.00550084 0.00465965 0.00495626 0.00550084 0.00582902 0.00495626 0.00525138 0.00582902 0.00615469 0.00525138 0.00554413 0.00615469 0.00647685 0.00554413 0.00583362 0.00647685 0.00679455 0.00583362 0.00611896 0.00679455 0.00710683 0.00611896 0.00639926 0.00710683 0.00741275 0.00639926 0.00667368 0.00741275 0.00771145 0.00667368 0.0069414 0.00771145 0.00800209 0.0069414 0.00720164 0.00800209 0.0082839 0.00720164 0.0074537 0.0082839 0.00855617 0.0074537 0.00769691 0.00855617 0.00881828 0.00769691 0.00793071 0.00881828 0.00906969 0.00793071 0.00815459 0.00906969 0.00930991 0.00815459 0.00836813 0.00930991 0.00953858 0.00836813 0.00857101 0.00953858 0.00975539 0.00857101 0.00876296 0.00975539 0.00996014 0.00876296 0.00894383 0.00996014 0.0101527 0.00894383 0.00911353 0.0101527 0.010333 0.00911353 0.00927206 0.010333 0.0105012 0.00927206 0.00941946 0.0105012 0.0106572 0.00941946 0.00955587 0.0106572 0.0108012 0.00955587 0.00968147 0.0108012 0.0109336 0.00968147 0.00979649 0.0109336 0.0110544 0.00979649 0.00990119 0.0110544 0.0111641 0.00990119 0.0099959 0.0111641 0.011263 0.0099959 0.0100809 0.011263 0.0113514 0.0100809 0.0101566 0.0113514 0.0114298 0.0101566 0.0102233 0.0114298 0.0114985 0.0102233 0.0102814 0.0114985 0.0115579 0.0102814 0.0103312 0.0115579 0.0116085 0.0103312 0.0103731 0.0116085 0.0116507 0.0103731 0.0104075 0.0116507 0.011685 0.0104075 0.0104346 0.011685 0.0117116 0.0104346 0.0104548 0.0117116 0.0117313 0.0104548 0.0104686 0.0117313 0.0117443 0.0104686 0.0104763 0.0117443 0.0117514 0.0104763 0.0104786 0.0117514 0.0117533 0.0104786 0.0104759 0.0117533 0.0117509 0.0104759 0.0104694 0.0117509 0.0117455 0.0104694 0.0104601 0.0117455 0.0117389 0.0104601 0.0104498 0.0117389 0.0117336 0.0104498 0.0104407 0 0.000155167 0 0.000134224 0.000155167 0.000338104 0.000134224 0.000293171 0.000338104 0.000544032 0.000293171 0.000473094 0.000544032 0.000768241 0.000473094 0.000670171 0.000768241 0.00100666 0.000670171 0.000880931 0.00100666 0.00125611 0.000880931 0.0011025 0.00125611 0.00151427 0.0011025 0.00133264 0.00151427 0.00177957 0.00133264 0.00156972 0.00177957 0.00205091 0.00156972 0.00181256 0.00205091 0.00232751 0.00181256 0.00206028 0.00232751 0.00260876 0.00206028 0.00231223 0.00260876 0.00289412 0.00231223 0.00256786 0.00289412 0.00318305 0.00256786 0.00282663 0.00318305 0.003475 0.00282663 0.00308803 0.003475 0.00376933 0.00308803 0.00335151 0.00376933 0.00406539 0.00335151 0.00361646 0.00406539 0.00436242 0.00361646 0.00388224 0.00436242 0.00465965 0.00388224 0.00414814 0.00465965 0.00495626 0.00414814 0.00441342 0.00495626 0.00525138 0.00441342 0.00467729 0.00525138 0.00554413 0.00467729 0.00493895 0.00554413 0.00583362 0.00493895 0.00519756 0.00583362 0.00611896 0.00519756 0.0054523 0.00611896 0.00639926 0.0054523 0.00570234 0.00639926 0.00667368 0.00570234 0.00594689 0.00667368 0.0069414 0.00594689 0.00618517 0.0069414 0.00720164 0.00618517 0.00641646 0.00720164 0.0074537 0.00641646 0.00664009 0.0074537 0.00769691 0.00664009 0.00685545 0.00769691 0.00793071 0.00685545 0.007062 0.00793071 0.00815459 0.007062 0.00725929 0.00815459 0.00836813 0.00725929 0.00744695 0.00836813 0.00857101 0.00744695 0.00762467 0.00857101 0.00876296 0.00762467 0.00779226 0.00876296 0.00894383 0.00779226 0.0079496 0.00894383 0.00911353 0.0079496 0.00809664 0.00911353 0.00927206 0.00809664 0.00823342 0.00927206 0.00941946 0.00823342 0.00836004 0.00941946 0.00955587 0.00836004 0.00847665 0.00955587 0.00968147 0.00847665 0.00858348 0.00968147 0.00979649 0.00858348 0.00868077 0.00979649 0.00990119 0.00868077 0.00876882 0.00990119 0.0099959 0.00876882 0.00884792 0.0099959 0.0100809 0.00884792 0.00891842 0.0100809 0.0101566 0.00891842 0.00898064 0.0101566 0.0102233 0.00898064 0.00903491 0.0102233 0.0102814 0.00903491 0.00908157 0.0102814 0.0103312 0.00908157 0.00912091 0.0103312 0.0103731 0.00912091 0.00915325 0.0103731 0.0104075 0.00915325 0.00917887 0.0104075 0.0104346 0.00917887 0.00919806 0.0104346 0.0104548 0.00919806 0.00921112 0.0104548 0.0104686 0.00921112 0.00921835 0.0104686 0.0104763 0.00921835 0.00922012 0.0104763 0.0104786 0.00922012 0.00921689 0.0104786 0.0104759 0.00921689 0.00920927 0.0104759 0.0104694 0.00920927 0.00919807 0.0104694 0.0104601 0.00919807 0.0091844 0.0104601 0.0104498 0.0