# vtk DataFile Version 3.0
#This file was generated by the deal.II library on 2021/2/10 at 1:07:08
ASCII
DATASET UNSTRUCTURED_GRID

POINTS 14400 double
0 -0.5 0
0.0166667 -0.5 0
0 -0.483333 0
0.0166667 -0.483333 0
0.0166667 -0.5 0
0.0333333 -0.5 0
0.0166667 -0.483333 0
0.0333333 -0.483333 0
0.0333333 -0.5 0
0.05 -0.5 0
0.0333333 -0.483333 0
0.05 -0.483333 0
0.05 -0.5 0
0.0666667 -0.5 0
0.05 -0.483333 0
0.0666667 -0.483333 0
0.0666667 -0.5 0
0.0833333 -0.5 0
0.0666667 -0.483333 0
0.0833333 -0.483333 0
0.0833333 -0.5 0
0.1 -0.5 0
0.0833333 -0.483333 0
0.1 -0.483333 0
0.1 -0.5 0
0.116667 -0.5 0
0.1 -0.483333 0
0.116667 -0.483333 0
0.116667 -0.5 0
0.133333 -0.5 0
0.116667 -0.483333 0
0.133333 -0.483333 0
0.133333 -0.5 0
0.15 -0.5 0
0.133333 -0.483333 0
0.15 -0.483333 0
0.15 -0.5 0
0.166667 -0.5 0
0.15 -0.483333 0
0.166667 -0.483333 0
0.166667 -0.5 0
0.183333 -0.5 0
0.166667 -0.483333 0
0.183333 -0.483333 0
0.183333 -0.5 0
0.2 -0.5 0
0.183333 -0.483333 0
0.2 -0.483333 0
0.2 -0.5 0
0.216667 -0.5 0
0.2 -0.483333 0
0.216667 -0.483333 0
0.216667 -0.5 0
0.233333 -0.5 0
0.216667 -0.483333 0
0.233333 -0.483333 0
0.233333 -0.5 0
0.25 -0.5 0
0.233333 -0.483333 0
0.25 -0.483333 0
0.25 -0.5 0
0.266667 -0.5 0
0.25 -0.483333 0
0.266667 -0.483333 0
0.266667 -0.5 0
0.283333 -0.5 0
0.266667 -0.483333 0
0.283333 -0.483333 0
0.283333 -0.5 0
0.3 -0.5 0
0.283333 -0.483333 0
0.3 -0.483333 0
0.3 -0.5 0
0.316667 -0.5 0
0.3 -0.483333 0
0.316667 -0.483333 0
0.316667 -0.5 0
0.333333 -0.5 0
0.316667 -0.483333 0
0.333333 -0.483333 0
0.333333 -0.5 0
0.35 -0.5 0
0.333333 -0.483333 0
0.35 -0.483333 0
0.35 -0.5 0
0.366667 -0.5 0
0.35 -0.483333 0
0.366667 -0.483333 0
0.366667 -0.5 0
0.383333 -0.5 0
0.366667 -0.483333 0
0.383333 -0.483333 0
0.383333 -0.5 0
0.4 -0.5 0
0.383333 -0.483333 0
0.4 -0.483333 0
0.4 -0.5 0
0.416667 -0.5 0
0.4 -0.483333 0
0.416667 -0.483333 0
0.416667 -0.5 0
0.433333 -0.5 0
0.416667 -0.483333 0
0.433333 -0.483333 0
0.433333 -0.5 0
0.45 -0.5 0
0.433333 -0.483333 0
0.45 -0.483333 0
0.45 -0.5 0
0.466667 -0.5 0
0.45 -0.483333 0
0.466667 -0.483333 0
0.466667 -0.5 0
0.483333 -0.5 0
0.466667 -0.483333 0
0.483333 -0.483333 0
0.483333 -0.5 0
0.5 -0.5 0
0.483333 -0.483333 0
0.5 -0.483333 0
0.5 -0.5 0
0.516667 -0.5 0
0.5 -0.483333 0
0.516667 -0.483333 0
0.516667 -0.5 0
0.533333 -0.5 0
0.516667 -0.483333 0
0.533333 -0.483333 0
0.533333 -0.5 0
0.55 -0.5 0
0.533333 -0.483333 0
0.55 -0.483333 0
0.55 -0.5 0
0.566667 -0.5 0
0.55 -0.483333 0
0.566667 -0.483333 0
0.566667 -0.5 0
0.583333 -0.5 0
0.566667 -0.483333 0
0.583333 -0.483333 0
0.583333 -0.5 0
0.6 -0.5 0
0.583333 -0.483333 0
0.6 -0.483333 0
0.6 -0.5 0
0.616667 -0.5 0
0.6 -0.483333 0
0.616667 -0.483333 0
0.616667 -0.5 0
0.633333 -0.5 0
0.616667 -0.483333 0
0.633333 -0.483333 0
0.633333 -0.5 0
0.65 -0.5 0
0.633333 -0.483333 0
0.65 -0.483333 0
0.65 -0.5 0
0.666667 -0.5 0
0.65 -0.483333 0
0.666667 -0.483333 0
0.666667 -0.5 0
0.683333 -0.5 0
0.666667 -0.483333 0
0.683333 -0.483333 0
0.683333 -0.5 0
0.7 -0.5 0
0.683333 -0.483333 0
0.7 -0.483333 0
0.7 -0.5 0
0.716667 -0.5 0
0.7 -0.483333 0
0.716667 -0.483333 0
0.716667 -0.5 0
0.733333 -0.5 0
0.716667 -0.483333 0
0.733333 -0.483333 0
0.733333 -0.5 0
0.75 -0.5 0
0.733333 -0.483333 0
0.75 -0.483333 0
0.75 -0.5 0
0.766667 -0.5 0
0.75 -0.483333 0
0.766667 -0.483333 0
0.766667 -0.5 0
0.783333 -0.5 0
0.766667 -0.483333 0
0.783333 -0.483333 0
0.783333 -0.5 0
0.8 -0.5 0
0.783333 -0.483333 0
0.8 -0.483333 0
0.8 -0.5 0
0.816667 -0.5 0
0.8 -0.483333 0
0.816667 -0.483333 0
0.816667 -0.5 0
0.833333 -0.5 0
0.816667 -0.483333 0
0.833333 -0.483333 0
0.833333 -0.5 0
0.85 -0.5 0
0.833333 -0.483333 0
0.85 -0.483333 0
0.85 -0.5 0
0.866667 -0.5 0
0.85 -0.483333 0
0.866667 -0.483333 0
0.866667 -0.5 0
0.883333 -0.5 0
0.866667 -0.483333 0
0.883333 -0.483333 0
0.883333 -0.5 0
0.9 -0.5 0
0.883333 -0.483333 0
0.9 -0.483333 0
0.9 -0.5 0
0.916667 -0.5 0
0.9 -0.483333 0
0.916667 -0.483333 0
0.916667 -0.5 0
0.933333 -0.5 0
0.916667 -0.483333 0
0.933333 -0.483333 0
0.933333 -0.5 0
0.95 -0.5 0
0.933333 -0.483333 0
0.95 -0.483333 0
0.95 -0.5 0
0.966667 -0.5 0
0.95 -0.483333 0
0.966667 -0.483333 0
0.966667 -0.5 0
0.983333 -0.5 0
0.966667 -0.483333 0
0.983333 -0.483333 0
0.983333 -0.5 0
1 -0.5 0
0.983333 -0.483333 0
1 -0.483333 0
0 -0.483333 0
0.0166667 -0.483333 0
0 -0.466667 0
0.0166667 -0.466667 0
0.0166667 -0.483333 0
0.0333333 -0.483333 0
0.0166667 -0.466667 0
0.0333333 -0.466667 0
0.0333333 -0.483333 0
0.05 -0.483333 0
0.0333333 -0.466667 0
0.05 -0.466667 0
0.05 -0.483333 0
0.0666667 -0.483333 0
0.05 -0.466667 0
0.0666667 -0.466667 0
0.0666667 -0.483333 0
0.0833333 -0.483333 0
0.0666667 -0.466667 0
0.0833333 -0.466667 0
0.0833333 -0.483333 0
0.1 -0.483333 0
0.0833333 -0.466667 0
0.1 -0.466667 0
0.1 -0.483333 0
0.116667 -0.483333 0
0.1 -0.466667 0
0.116667 -0.466667 0
0.116667 -0.483333 0
0.133333 -0.483333 0
0.116667 -0.466667 0
0.133333 -0.466667 0
0.133333 -0.483333 0
0.15 -0.483333 0
0.133333 -0.466667 0
0.15 -0.466667 0
0.15 -0.483333 0
0.166667 -0.483333 0
0.15 -0.466667 0
0.166667 -0.466667 0
0.166667 -0.483333 0
0.183333 -0.483333 0
0.166667 -0.466667 0
0.183333 -0.466667 0
0.183333 -0.483333 0
0.2 -0.483333 0
0.183333 -0.466667 0
0.2 -0.466667 0
0.2 -0.483333 0
0.216667 -0.483333 0
0.2 -0.466667 0
0.216667 -0.466667 0
0.216667 -0.483333 0
0.233333 -0.483333 0
0.216667 -0.466667 0
0.233333 -0.466667 0
0.233333 -0.483333 0
0.25 -0.483333 0
0.233333 -0.466667 0
0.25 -0.466667 0
0.25 -0.483333 0
0.266667 -0.483333 0
0.25 -0.466667 0
0.266667 -0.466667 0
0.266667 -0.483333 0
0.283333 -0.483333 0
0.266667 -0.466667 0
0.283333 -0.466667 0
0.283333 -0.483333 0
0.3 -0.483333 0
0.283333 -0.466667 0
0.3 -0.466667 0
0.3 -0.483333 0
0.316667 -0.483333 0
0.3 -0.466667 0
0.316667 -0.466667 0
0.316667 -0.483333 0
0.333333 -0.483333 0
0.316667 -0.466667 0
0.333333 -0.466667 0
0.333333 -0.483333 0
0.35 -0.483333 0
0.333333 -0.466667 0
0.35 -0.466667 0
0.35 -0.483333 0
0.366667 -0.483333 0
0.35 -0.466667 0
0.366667 -0.466667 0
0.366667 -0.483333 0
0.383333 -0.483333 0
0.366667 -0.466667 0
0.383333 -0.466667 0
0.383333 -0.483333 0
0.4 -0.483333 0
0.383333 -0.466667 0
0.4 -0.466667 0
0.4 -0.483333 0
0.416667 -0.483333 0
0.4 -0.466667 0
0.416667 -0.466667 0
0.416667 -0.483333 0
0.433333 -0.483333 0
0.416667 -0.466667 0
0.433333 -0.466667 0
0.433333 -0.483333 0
0.45 -0.483333 0
0.433333 -0.466667 0
0.45 -0.466667 0
0.45 -0.483333 0
0.466667 -0.483333 0
0.45 -0.466667 0
0.466667 -0.466667 0
0.466667 -0.483333 0
0.483333 -0.483333 0
0.466667 -0.466667 0
0.483333 -0.466667 0
0.483333 -0.483333 0
0.5 -0.483333 0
0.483333 -0.466667 0
0.5 -0.466667 0
0.5 -0.483333 0
0.516667 -0.483333 0
0.5 -0.466667 0
0.516667 -0.466667 0
0.516667 -0.483333 0
0.533333 -0.483333 0
0.516667 -0.466667 0
0.533333 -0.466667 0
0.533333 -0.483333 0
0.55 -0.483333 0
0.533333 -0.466667 0
0.55 -0.466667 0
0.55 -0.483333 0
0.566667 -0.483333 0
0.55 -0.466667 0
0.566667 -0.466667 0
0.566667 -0.483333 0
0.583333 -0.483333 0
0.566667 -0.466667 0
0.583333 -0.466667 0
0.583333 -0.483333 0
0.6 -0.483333 0
0.583333 -0.466667 0
0.6 -0.466667 0
0.6 -0.483333 0
0.616667 -0.483333 0
0.6 -0.466667 0
0.616667 -0.466667 0
0.616667 -0.483333 0
0.633333 -0.483333 0
0.616667 -0.466667 0
0.633333 -0.466667 0
0.633333 -0.483333 0
0.65 -0.483333 0
0.633333 -0.466667 0
0.65 -0.466667 0
0.65 -0.483333 0
0.666667 -0.483333 0
0.65 -0.466667 0
0.666667 -0.466667 0
0.666667 -0.483333 0
0.683333 -0.483333 0
0.666667 -0.466667 0
0.683333 -0.466667 0
0.683333 -0.483333 0
0.7 -0.483333 0
0.683333 -0.466667 0
0.7 -0.466667 0
0.7 -0.483333 0
0.716667 -0.483333 0
0.7 -0.466667 0
0.716667 -0.466667 0
0.716667 -0.483333 0
0.733333 -0.483333 0
0.716667 -0.466667 0
0.733333 -0.466667 0
0.733333 -0.483333 0
0.75 -0.483333 0
0.733333 -0.466667 0
0.75 -0.466667 0
0.75 -0.483333 0
0.766667 -0.483333 0
0.75 -0.466667 0
0.766667 -0.466667 0
0.766667 -0.483333 0
0.783333 -0.483333 0
0.766667 -0.466667 0
0.783333 -0.466667 0
0.783333 -0.483333 0
0.8 -0.483333 0
0.783333 -0.466667 0
0.8 -0.466667 0
0.8 -0.483333 0
0.816667 -0.483333 0
0.8 -0.466667 0
0.816667 -0.466667 0
0.816667 -0.483333 0
0.833333 -0.483333 0
0.816667 -0.466667 0
0.833333 -0.466667 0
0.833333 -0.483333 0
0.85 -0.483333 0
0.833333 -0.466667 0
0.85 -0.466667 0
0.85 -0.483333 0
0.866667 -0.483333 0
0.85 -0.466667 0
0.866667 -0.466667 0
0.866667 -0.483333 0
0.883333 -0.483333 0
0.866667 -0.466667 0
0.883333 -0.466667 0
0.883333 -0.483333 0
0.9 -0.483333 0
0.883333 -0.466667 0
0.9 -0.466667 0
0.9 -0.483333 0
0.916667 -0.483333 0
0.9 -0.466667 0
0.916667 -0.466667 0
0.916667 -0.483333 0
0.933333 -0.483333 0
0.916667 -0.466667 0
0.933333 -0.466667 0
0.933333 -0.483333 0
0.95 -0.483333 0
0.933333 -0.466667 0
0.95 -0.466667 0
0.95 -0.483333 0
0.966667 -0.483333 0
0.95 -0.466667 0
0.966667 -0.466667 0
0.966667 -0.483333 0
0.983333 -0.483333 0
0.966667 -0.466667 0
0.983333 -0.466667 0
0.983333 -0.483333 0
1 -0.483333 0
0.983333 -0.466667 0
1 -0.466667 0
0 -0.466667 0
0.0166667 -0.466667 0
0 -0.45 0
0.0166667 -0.45 0
0.0166667 -0.466667 0
0.0333333 -0.466667 0
0.0166667 -0.45 0
0.0333333 -0.45 0
0.0333333 -0.466667 0
0.05 -0.466667 0
0.0333333 -0.45 0
0.05 -0.45 0
0.05 -0.466667 0
0.0666667 -0.466667 0
0.05 -0.45 0
0.0666667 -0.45 0
0.0666667 -0.466667 0
0.0833333 -0.466667 0
0.0666667 -0.45 0
0.0833333 -0.45 0
0.0833333 -0.466667 0
0.1 -0.466667 0
0.0833333 -0.45 0
0.1 -0.45 0
0.1 -0.466667 0
0.116667 -0.466667 0
0.1 -0.45 0
0.116667 -0.45 0
0.116667 -0.466667 0
0.133333 -0.466667 0
0.116667 -0.45 0
0.133333 -0.45 0
0.133333 -0.466667 0
0.15 -0.466667 0
0.133333 -0.45 0
0.15 -0.45 0
0.15 -0.466667 0
0.166667 -0.466667 0
0.15 -0.45 0
0.166667 -0.45 0
0.166667 -0.466667 0
0.183333 -0.466667 0
0.166667 -0.45 0
0.183333 -0.45 0
0.183333 -0.466667 0
0.2 -0.466667 0
0.183333 -0.45 0
0.2 -0.45 0
0.2 -0.466667 0
0.216667 -0.466667 0
0.2 -0.45 0
0.216667 -0.45 0
0.216667 -0.466667 0
0.233333 -0.466667 0
0.216667 -0.45 0
0.233333 -0.45 0
0.233333 -0.466667 0
0.25 -0.466667 0
0.233333 -0.45 0
0.25 -0.45 0
[...]
POINT_DATA 14400
SCALARS x1_displacement double 1
LOOKUP_TABLE default
0 -0.00334153 0 -0.00144639 -0.00334153 -0.00524783 -0.00144639 -0.00344595 -0.00524783 -0.0064244 -0.00344595 -0.0051017 -0.0064244 -0.0056948 -0.0051017 -0.00557191 -0.0056948 -0.00487923 -0.00557191 -0.00523002 -0.00487923 -0.00423709 -0.00523002 -0.00479327 -0.00423709 -0.00366609 -0.00479327 -0.00433471 -0.00366609 -0.00313084 -0.00433471 -0.00386106 -0.00313084 -0.002613 -0.00386106 -0.00338746 -0.002613 -0.00211174 -0.00338746 -0.00292281 -0.00211174 -0.00162857 -0.00292281 -0.0024691 -0.00162857 -0.00116327 -0.0024691 -0.00202705 -0.00116327 -0.000714535 -0.00202705 -0.00159659 -0.000714535 -0.000280283 -0.00159659 -0.00117699 -0.000280283 0.000142149 -0.00117699 -0.00076686 0.000142149 0.00055593 -0.00076686 -0.000364249 0.00055593 0.000964579 -0.000364249 3.31808e-05 0.000964579 0.00137173 3.31808e-05 0.000427935 0.00137173 0.00178086 0.000427935 0.000822455 0.00178086 0.00219501 0.000822455 0.00121888 0.00219501 0.00261648 0.00121888 0.00161886 0.00261648 0.00304668 0.00161886 0.00202336 0.00304668 0.00348597 0.00202336 0.00243257 0.00348597 0.00393362 0.00243257 0.0028459 0.00393362 0.0043879 0.0028459 0.00326197 0.0043879 0.00484622 0.00326197 0.00367877 0.00484622 0.00530536 0.00367877 0.0040938 0.00530536 0.00576173 0.0040938 0.00450423 0.00576173 0.0062116 0.00450423 0.00490715 0.0062116 0.00665134 0.00490715 0.00529967 0.00665134 0.0070776 0.00529967 0.0056791 0.0070776 0.00748737 0.0056791 0.006043 0.00748737 0.0078781 0.006043 0.00638924 0.0078781 0.00824763 0.00638924 0.00671602 0.00824763 0.00859422 0.00671602 0.00702184 0.00859422 0.00891647 0.00702184 0.00730549 0.00891647 0.00921329 0.00730549 0.00756601 0.00921329 0.00948384 0.00756601 0.00780268 0.00948384 0.00972752 0.00780268 0.00801496 0.00972752 0.0099439 0.00801496 0.00820254 0.0099439 0.0101327 0.00820254 0.00836525 0.0101327 0.0102938 0.00836525 0.00850307 0.0102938 0.010427 0.00850307 0.00861613 0.010427 0.0105323 0.00861613 0.00870466 0.0105323 0.0106095 0.00870466 0.00876901 0.0106095 0.0106583 0.00876901 0.00880958 0.0106583 0.0106782 0.00880958 0.00882689 0.0106782 0.0106682 0.00882689 0.0088216 0.0106682 0.010627 0.0088216 0.0087947 0.010627 0.010553 0.0087947 0.0087478 0.010553 0.0104437 0.0087478 0.0086838 0.0104437 0.0102963 0.0086838 0.00860823 0.0102963 0.0101068 0.00860823 0.00853191 0.0101068 0.00987154 0.00853191 0.00847591 0.00987154 0.00959411 0.00847591 0.00847557 0.00959411 0.00938103 0.00847557 0.00854083 0.00938103 0.00941516 0.00854083 0.00816752 0.00941516 0.00823954 0.00816752 0.00671606 0.00823954 0.00672341 0.00671606 0.0050719 0.00672341 0.00509336 0.0050719 0.00338362 0 -0.00144639 0 -0.00121494 -0.00144639 -0.00344595 -0.00121494 -0.0027736 -0.00344595 -0.0051017 -0.0027736 -0.00440845 -0.0051017 -0.00557191 -0.00440845 -0.00565603 -0.00557191 -0.00523002 -0.00565603 -0.00569305 -0.00523002 -0.00479327 -0.00569305 -0.0053911 -0.00479327 -0.00433471 -0.0053911 -0.00500705 -0.00433471 -0.00386106 -0.00500705 -0.00457574 -0.00386106 -0.00338746 -0.00457574 -0.00414012 -0.00338746 -0.00292281 -0.00414012 -0.00370758 -0.00292281 -0.0024691 -0.00370758 -0.0032811 -0.0024691 -0.00202705 -0.0032811 -0.00286214 -0.00202705 -0.00159659 -0.00286214 -0.00245175 -0.00159659 -0.00117699 -0.00245175 -0.00205027 -0.00117699 -0.00076686 -0.00205027 -0.00165726 -0.00076686 -0.000364249 -0.00165726 -0.00127154 -0.000364249 3.31808e-05 -0.00127154 -0.000891447 3.31808e-05 0.000427935 -0.000891447 -0.000515033 0.000427935 0.000822455 -0.000515033 -0.000140337 0.000822455 0.00121888 -0.000140337 0.000234396 0.00121888 0.00161886 0.000234396 0.000610521 0.00161886 0.00202336 0.000610521 0.000988828 0.00202336 0.00243257 0.000988828 0.00136944 0.00243257 0.0028459 0.00136944 0.00175176 0.0028459 0.00326197 0.00175176 0.00213453 0.00326197 0.00367877 0.00213453 0.00251593 0.00367877 0.0040938 0.00251593 0.00289371 0.0040938 0.00450423 0.00289371 0.0032654 0.00450423 0.00490715 0.0032654 0.00362846 0.00490715 0.00529967 0.00362846 0.00398044 0.00529967 0.0056791 0.00398044 0.00431909 0.0056791 0.006043 0.00431909 0.00464241 0.006043 0.00638924 0.00464241 0.00494869 0.00638924 0.00671602 0.00494869 0.00523648 0.00671602 0.00702184 0.00523648 0.00550459 0.00702184 0.00730549 0.00550459 0.00575205 0.00730549 0.00756601 0.00575205 0.00597811 0.00756601 0.00780268 0.00597811 0.0061822 0.00780268 0.00801496 0.0061822 0.00636395 0.00801496 0.00820254 0.00636395 0.00652316 0.00820254 0.00836525 0.00652316 0.00665982 0.00836525 0.00850307 0.00665982 0.00677413 0.00850307 0.00861613 0.00677413 0.00686648 0.00861613 0.00870466 0.00686648 0.0069375 0.00870466 0.00876901 0.0069375 0.00698803 0.00876901 0.00880958 0.00698803 0.00701919 0.00880958 0.00882689 0.00701919 0.0070324 0.00882689 0.0088216 0.0070324 0.00702955 0.0088216 0.0087947 0.00702955 0.00701318 0.0087947 0.0087478 0.00701318 0.00698684 0.0087478 0.0086838 0.00698684 0.00695573 0.0086838 0.00860823 0.00695573 0.00692768 0.00860823 0.00853191 0.00692768 0.00691364 0.00853191 0.00847591 0.00691364 0.00692477 0.00847591 0.00847557 0.00692477 0.00695232 0.00847557 0.00854083 0.00695232 0.00687204 0.00854083 0.00816752 0.00687204 0.00640457 0.00816752 0.00671606 0.00640457 0.00497898 0.00671606 0.0050719 0.00497898 0.0033447 0.0050719 0.00338362 0.0033447 0.00162191 0 -0.00121494 0 -0.00108435 -0.00121494 -0.0027736 -0.00108435 -0.0024725 -0.0027736 -0.00440845 -0.0024725 -0.00401428 -0.00440845 -0.00565603 -0.00401428 -0.00553483 -0.00565603 -0.00569305 -0.00553483 -0.00646571 -0.00569305 -0.0053911 -0.00646571 -0.00614028 -0.0053911 -0.00500705 -0.00614028 -0.00570735 -0.00500705 -0.00457574 -0.00570735 -0.00529836 -0.00457574 -0.00414012 -0.00529836 -0.00488988 -0.00414012 -0.00370758 -0.00488988 -0.00448244 -0.00370758 -0.0032811 -0.00448244 -0.00407772 -0.0032811 -0.00286214 -0.00407772 -0.00367844 -0.00286214 -0.00245175 -0.00367844 -0.00328697 -0.00245175 -0.00205027 -0.00328697 -0.00290441 -0.00205027 -0.00165726 -0.00290441 -0.00253083 -0.00165726 -0.00127154 -0.00253083 -0.00216534 -0.00127154 -0.000891447 -0.00216534 -0.00180643 -0.000891447 -0.000515033 -0.00180643 -0.00145224 -0.000515033 -0.000140337 -0.00145224 -0.00110085 -0.000140337 0.000234396 -0.00110085 -0.000750469 0.000234396 0.000610521 -0.000750469 -0.000399721 0.000610521 0.000988828 -0.000399721 -4.77837e-05 0.000988828 0.00136944 -4.77837e-05 0.000305468 0.00136944 0.00175176 0.000305468 0.000659407 0.00175176 0.00213453 0.000659407 0.0010127 0.00213453 0.00251593 0.0010127 0.00136342 0.00251593 0.00289371 0.00136342 0.00170927 0.00289371 0.0032654 0.00170927 0.00204778 0.0032654 0.00362846 0.00204778 0.0023765 0.00362846 0.00398044 0.0023765 0.00269318 0.00398044 0.00431909 0.00269318 0.00299586 0.00431909 0.00464241 0.00299586 0.00328288 0.00464241 0.00494869 0.00328288 0.00355288 0.00494869 0.00523648 0.00355288 0.00380479 0.00523648 0.00550459 0.00380479 0.00403773 0.00550459 0.00575205 0.00403773 0.00425103 0.00575205 0.00597811 0.00425103 0.00444416 0.00597811 0.0061822 0.00444416 0.00461674 0.0061822 0.00636395 0.00461674 0.00476853 0.00636395 0.00652316 0.00476853 0.00489949 0.00652316 0.00665982 0.00489949 0.00500977 0.00665982 0.00677413 0.00500977 0.00509975 0.00677413 0.00686648 0.00509975 0.00517007 0.00686648 0.0069375 0.00517007 0.00522167 0.0069375 0.00698803 0.00522167 0.00525581 0.00698803 0.00701919 0.00525581 0.00527408 0.00701919 0.0070324 0.00527408 0.00527847 0.0070324 0.00702955 0.00527847 0.0052714 0.00702955 0.00701318 0.0052714 0.00525583 0.00701318 0.00698684 0.00525583 0.00523527 0.00698684 0.00695573 0.00523527 0.0052137 0.00695573 0.00692768 0.0052137 0.0051949 0.00692768 0.00691364 0.0051949 0.00518019 0.00691364 0.00692477 0.00518019 0.00516009 0.00692477 0.00695232 0.00516009 0.00509643 0.00695232 0.00687204 0.00509643 0.00491935 0.00687204 0.00640457 0.00491935 0.00441047 0.00640457 0.00497898 0.00441047 0.00300862 0.00497898 0.0033447 0.00300862 0.00138844 0.0033447 0.00162191 0.00138844 -0.000351281 0 -0.00108435 0 -0.00100063 -0.00108435 -0.0024725 -0.00100063 -0.0022572 -0.0024725 -0.00401428 -0.0022572 -0.00369442 -0.00401428 -0.00553483 -0.00369442 -0.00519632 -0.00553483 -0.00646571 -0.00519632 -0.00655347 -0.00646571 -0.00614028 -0.00655347 -0.00677056 -0.00614028 -0.00570735 -0.00677056 -0.00642916 -0.00570735 -0.00529836 -0.00642916 -0.00604588 -0.00529836 -0.00488988 -0.00604588 -0.00565481 -0.00488988 -0.00448244 -0.00565481 -0.00526059 -0.00448244 -0.00407772 -0.00526059 -0.0048678 -0.00407772 -0.00367844 -0.0048678 -0.00448211 -0.00367844 -0.00328697 -0.00448211 -0.00410617 -0.00328697 -0.00290441 -0.00410617 -0.00374141 -0.00290441 -0.00253083 -0.00374141 -0.00338783 -0.00253083 -0.00216534 -0.00338783 -0.00304426 -0.00216534 -0.00180643 -0.00304426 -0.00270885 -0.00180643 -0.00145224 -0.00270885 -0.00237941 -0.00145224 -0.00110085 -0.00237941 -0.00205366 -0.00110085 -0.000750469 -0.00205366 -0.00172945 -0.000750469 -0.000399721 -0.00172945 -0.0014051 -0.000399721 -4.77837e-05 -0.0014051 -0.00107953 -4.77837e-05 0.000305468 -0.00107953 -0.000752536 0.000305468 0.000659407 -0.000752536 -0.000424796 0.000659407 0.0010127 -0.000424796 -9.78711e-05 0.0010127 0.00136342 -9.78711e-05 0.000226002 0.00136342 0.00170927 0.000226002 0.000544179 0.00170927 0.00204778 0.000544179 0.000853915 0.00204778 0.0023765 0.000853915 0.00115263 0.0023765 0.00269318 0.00115263 0.0014381 0.00269318 0.00299586 0.0014381 0.00170851 0.00299586 0.00328288 0.00170851 0.00196252 0.00328288 0.00355288 0.00196252 0.00219911 0.00355288 0.00380479 0.00219911 0.00241757 0.00380479 0.00403773 0.00241757 0.00261738 0.00403773 0.00425103 0.00261738 0.00279812 0.00425103 0.00444416 0.00279812 0.00295951 0.00444416 0.00461674 0.00295951 0.00310133 0.00461674 0.00476853 0.00310133 0.00322349 0.00476853 0.00489949 0.00322349 0.00332602 0.00489949 0.00500977 0.00332602 0.00340919 0.00500977 0.00509975 0.00340919 0.00347351 0.00509975 0.00517007 0.00347351 0.00351977 0.00517007 0.00522167 0.00351977 0.00354911 0.00522167 0.00525581 0.00354911 0.00356299 0.00525581 0.00527408 0.00356299 0.00356322 0.00527408 0.00527847 0.00356322 0.0035519 0.00527847 0.0052714 0.0035519 0.00353134 0.0052714 0.00525583 0.00353134 0.00350393 0.00525583 0.00523527 0.00350393 0.00347179 0.00523527 0.0052137 0.00347179 0.00343576 0.0052137 0.0051949 0.00343576 0.0033935 0.0051949 0.00518019 0.0033935 0.00333597 0.00518019 0.00516009 0.00333597 0.00324304 0.00516009 0.00509643 0.00324304 0.00307225 0.00509643 0.00491935 0.00307225 0.00278245 0.00491935 0.00441047 0.00278245 0.00218157 0.00441047 0.00300862 0.00218157 0.000765634 0.00300862 0.00138844 0.000765634 -0.000864451 0.00138844 -0.000351281 -0.000864451 -0.00261502 0 -0.00100063 0 -0.000950582 -0.00100063 -0.0022572 -0.000950582 -0.00215148 -0.0022572 -0.00369442 -0.00215148 -0.00353828 -0.00369442 -0.00519632 -0.00353828 -0.00502573 -0.00519632 -0.00655347 -0.00502573 -0.00646791 -0.00655347 -0.00677056 -0.00646791 -0.00749702 -0.00677056 -0.00642916 -0.00749702 -0.00726842 -0.00642916 -0.00604588 -0.00726842 -0.00685358 -0.00604588 -0.00565481 -0.00685358 -0.00645103 -0.00565481 -0.00526059 -0.00645103 -0.00604712 -0.00526059 -0.0048678 -0.00604712 -0.00565491 -0.0048678 -0.00448211 -0.00565491 -0.00527489 -0.00448211 -0.00410617 -0.00527489 -0.00490986 -0.00410617 -0.00374141 -0.00490986 -0.00456089 -0.00374141 -0.00338783 -0.00456089 -0.00422694 -0.00338783 -0.00304426 -0.00422694 -0.003906 -0.00304426 -0.00270885 -0.003906 -0.00359546 -0.00270885 -0.00237941 -0.00359546 -0.00329245 -0.00237941 -0.00205366 -0.00329245 -0.00299401 -0.00205366 -0.00172945 -0.00299401 -0.00269737 -0.00172945 -0.0014051 -0.00269737 -0.00240019 -0.0014051 -0.00107953 -0.00240019 -0.00210096 -0.00107953 -0.000752536 -0.00210096 -0.00179924 -0.000752536 -0.000424796 -0.00179924 -0.00149579 -0.000424796 -9.78711e-05 -0.00149579 -0.00119252 -9.78711e-05 0.000226002 -0.00119252 -0.000892238 0.000226002 0.000544179 -0.000892238 -0.000598191 0.000544179 0.000853915 -0.000598191 -0.00031366 0.000853915 0.00115263 -0.00031366 -4.15594e-05 0.00115263 0.0014381 -4.15594e-05 0.000215782 0.0014381 0.00170851 0.000215782 0.000456694 0.00170851 0.00196252 0.000456694 0.000680096 0.00196252 0.00219911 0.000680096 0.000885361 0.00219911 0.00241757 0.000885361 0.00107216 0.00241757 0.00261738 0.00107216 0.00124031 0.00261738 0.00279812 0.00124031 0.00138969 0.00279812 0.00295951 0.00138969 0.00152022 0.00295951 0.00310133 0.00152022 0.00163179 0.00310133 0.00322349 0.00163179 0.00172438 0.00322349 0.00332602 0.00172438 0.00179807 0.00332602 0.00340919 0.00179807 0.00185313 0.00340919 0.00347351 0.00185313 0.00189009 0.00347351 0.00351977 0.00189009 0.00190978 0.00351977 0.00354911 0.00190978 0.00191337 0.00354911 0.00356299 0.00191337 0.00190235 0.00356299 0.00356322 0.00190235 0.00187848 0.00356322 0.0035519 0.00187848 0.00184363 0.0035519 0.00353134 0.00184363 0.00179951 0.00353134 0.00350393 0.00179951 0.00174743 0.00350393 0.00347179 0.00174743 0.00168772 0.00347179 0.00343576 0.00168772 0.00161857 0.00343576 0.0033935 0.00161857 0.00153329 0.0033935 0.00333597 0.00153329 0.00141714 0.00333597 0.00324304 0.00141714 0.00124704 0.00324304 0.00307225 0.00124704 0.00100674 0.00307225 0.00278245 0.00100674 0.00064283 0.00278245 0.00218157 0.00064283 -0.00029923 0.00218157 0.000765634 -0.00029923 -0.0017934 0.000765634 -0.000864451 -0.0017934 -0.00344316 -0.000864451 -0.00261502 -0.00344316 -0.00519012 0 -0.000950582 0 -0.000915664 -0.000950582 -0.00215148 -0.000915664 -0.00208466 -0.00215148 -0.00353828 -0.00208466 -0.00341199 -0.00353828 -0.00502573 -0.00341199 -0.00483328 -0.00502573 -0.00646791 -0.00483328 -0.00628465 -0.00646791 -0.00749702 -0.00628465 -0.00764226 -0.00749702 -0.00726842 -0.00764226 -0.00818641 -0.00726842 -0.00685358 -0.00818641 -0.00772904 -0.00685358 -0.00645103 -0.00772904 -0.00725977 -0.00645103 -0.00604712 -0.00725977 -0.0068387 -0.00604712 -0.00565491 -0.0068387 -0.00643568 -0.00565491 -0.00527489 -0.00643568 -0.00605324 -0.00527489 -0.00490986 -0.00605324 -0.00569531 -0.00490986 -0.00456089 -0.00569531 -0.00536033 -0.00456089 -0.00422694 -0.00536033 -0.00504544 -0.00422694 -0.003906 -0.00504544 -0.00474734 -0.003906 -0.00359546 -0.00474734 -0.00446247 -0.00359546 -0.00329245 -0.00446247 -0.00418711 -0.00329245 -0.00299401 -0.00418711 -0.00391738 -0.00299401 -0.00269737 -0.00391738 -0.00364954 -0.00269737 -0.00240019 -0.00364954 -0.00338036 -0.00240019 -0.00210096 -0.00338036 -0.00310757 -0.00210096 -0.00179924 -0.00310757 -0.00283031 -0.00179924 -0.00149579 -0.00283031 -0.00254942 -0.00149579 -0.00119252 -0.00254942 -0.00226734 -0.00119252 -0.000892238 -0.00226734 -0.00198769 -0.000892238 -0.000598191 -0.00198769 -0.0017147 -0.000598191 -0.00031366 -0.0017147 -0.00145244 -0.00031366 -4.15594e-05 -0.00145244 -0.00120434 -4.15594e-05 0.000215782 -0.00120434 -0.000972901 0.000215782 0.000456694 -0.000972901 -0.000759635 0.000456694 0.000680096 -0.000759635 -0.000565272 0.000680096 0.000885361 -0.000565272 -0.000389997 0.000885361 0.00107216 -0.000389997 -0.000233702 0.00107216 0.00124031 -0.000233702 -9.61977e-05 0.00124031 0.00138969 -9.61977e-05 2.26645e-05 0.00138969 0.00152022 2.26645e-05 0.000122937 0.00152022 0.00163179 0.000122937 0.000204587 0.00163179 0.00172438 0.000204587 0.000267559 0.00172438 0.00179807 0.000267559 0.000311864 0.00179807 0.00185313 0.000311864 0.000337679 0.00185313 0.00189009 0.000337679 0.000345431 0.00189009 0.00190978 0.000345431 0.000335851 0.00190978 0.00191337 0.000335851 0.000309985 0.00191337 0.00190235 0.000309985 0.000269175 0.00190235 0.00187848 0.000269175 0.000214956 0.00187848 0.00184363 0.000214956 0.00014881 0.00184363 0.00179951 0.00014881 7.167e-05 0.00179951 0.00174743 7.167e-05 -1.64924e-05 0.00174743 0.00168772 -1.64924e-05 -0.000116965 0.00168772 0.00161857 -0.000116965 -0.000232628 0.00161857 0.00153329 -0.000232628 -0.000370313 0.00153329 0.00141714 -0.000370313 -0.000544963 0.00141714 0.00124704 -0.000544963 -0.000779708 0.00124704 0.00100674 -0.000779708 -0.00108702 0.00100674 0.00064283 -0.00108702 -0.00167252 0.00064283 -0.00029923 -0.00167252 -0.00305898 -0.00029923 -0.0017934 -0.00305898 -0.00465091 -0.0017934 -0.00344316 -0.00465091 -0.00631405 -0.00344316 -0.00519012 -0.00631405 -0.00804099 0 -0.000915664 0 -0.000879287 -0.000915664 -0.00208466 -0.000879287 -0.00201888 -0.00208466 -0.00341199 -0.00201888 -0.00327071 -0.00341199 -0.00483328 -0.00327071 -0.0046078 -0.00483328 -0.00628465 -0.0046078 -0.00602075 -0.00628465 -0.00764226 -0.00602075 -0.00744054 -0.00764226 -0.00818641 -0.00744054 -0.00861751 -0.00818641 -0.00772904 -0.00861751 -0.00852949 -0.00772904 -0.00725977 -0.00852949 -0.00806881 -0.00725977 -0.0068387 -0.00806881 -0.00762497 -0.0068387 -0.00643568 -0.00762497 -0.00719736 -0.00643568 -0.00605324 -0.00719736 -0.00680974 -0.00605324 -0.00569531 -0.00680974 -0.00645764 -0.00569531 -0.00536033 -0.00645764 -0.00613587 -0.00536033 -0.00504544 -0.00613587 -0.00583951 -0.00504544 -0.00474734 -0.00583951 -0.00556413 -0.00474734 -0.00446247 -0.00556413 -0.00530538 -0.00446247 -0.00418711 -0.00530538 -0.00505863 -0.00418711 -0.00391738 -0.00505863 -0.00481897 -0.00391738 -0.00364954 -0.00481897 -0.0045814 -0.00364954 -0.00338036 -0.0045814 -0.00434136 -0.00338036 -0.00310757 -0.00434136 -0.00409542 -0.00310757 -0.00283031 -0.00409542 -0.00384208 -0.00283031 -0.00254942 -0.00384208 -0.00358217 -0.00254942 -0.00226734 -0.00358217 -0.00331885 -0.00226734 -0.00198769 -0.00331885 -0.00305702 -0.00198769 -0.0017147 -0.00305702 -0.00280229 -0.0017147 -0.00145244 -0.00280229 -0.00255988 -0.00145244 -0.00120434 -0.00255988 -0.0023339 -0.00120434 -0.000972901 -0.0023339 -0.00212698 -0.000972901 -0.000759635 -0.00212698 -0.00194038 -0.000759635 -0.000565272 -0.00194038 -0.00177431 -0.000565272 -0.000389997 -0.00177431 -0.00162838 -0.000389997 -0.000233702 -0.00162838 -0.00150197 -0.000233702 -9.61977e-05 -0.00150197 -0.00139451 -9.61977e-05 2.26645e-05 -0.00139451 -0.00130561 2.26645e-05 0.000122937 -0.00130561 -0.00123512 0.000122937 0.000204587 -0.00123512 -0.00118314 0.000204587 0.000267559 -0.00118314 -0.00114985 0.000267559 0.000311864 -0.00114985 -0.00113544 0.000311864 0.000337679 -0.00113544 -0.00113995 0.000337679 0.000345431 -0.00113995 -0.00116317 0.000345431 0.000335851 -0.00116317 -0.0012046 0.000335851 0.000309985 -0.0012046 -0.00126345 0.000309985 0.000269175 -0.00126345 -0.0013387 0.000269175 0.000214956 -0.0013387 -0.00142914 0.000214956 0.00014881 -0.00142914 -0.00153362 0.00014881 7.167e-05 -0.00153362 -0.00165171 7.167e-05 -1.64924e-05 -0.00165171 -0.00178505 -1.64924e-05 -0.000116965 -0.00178505 -0.0019368 -0.000116965 -0.000232628 -0.0019368 -0.00211034 -0.000232628 -0.000370313 -0.00211034 -0.00230884 -0.000370313 -0.000544963 -0.00230884 -0.0025412 -0.000544963 -0.000779708 -0.0025412 -0.00282002 -0.000779708 -0.00108702 -0.00282002 -0.00324714 -0.00108702 -0.00167252 -0.00324714 -0.0044945 -0.00167252 -0.00305898 -0.0044945 -0.0060761 -0.00305898 -0.00465091 -0.0060761 -0.00771207 -0.00465091 -0.00631405 -0.00771207 -0.00938028 -0.00631405 -0.00804099 -0.00938028 -0.0110847 0 -0.000879287 0 -0.000797805 -0.000879287 -0.00201888 -0.000797805 -0.00189759 -0.00201888 -0.00327071 -0.00189759 -0.00307284 -0.00327071 -0.0046078 -0.00307284 -0.00434775 -0.0046078 -0.00602075 -0.00434775 -0.00571751 -0.00602075 -0.00744054 -0.00571751 -0.00714337 -0.00744054 -0.00861751 -0.00714337 -0.00851623 -0.00861751 -0.00852949 -0.00851623 -0.00933628 -0.00852949 -0.00806881 -0.00933628 -0.0088905 -0.00806881 -0.00762497 -0.0088905 -0.00836674 -0.00762497 -0.00719736 -0.00836674 -0.00792497 -0.00719736 -0.00680974 -0.00792497 -0.00753696 -0.00680974 -0.00645764 -0.00753696 -0.00719237 -0.00645764 -0.00613587 -0.00719237 -0.00688344 -0.00613587 -0.00583951 -0.00688344 -0.0066046 -0.00583951 -0.00556413 -0.0066046 -0.0063513 -0.00556413 -0.00530