# vtk DataFile Version 3.0
#This file was generated by the deal.II library on 2021/2/10 at 1:04:36
ASCII
DATASET UNSTRUCTURED_GRID

POINTS 14400 double
0 -0.5 0
0.0166667 -0.5 0
0 -0.483333 0
0.0166667 -0.483333 0
0.0166667 -0.5 0
0.0333333 -0.5 0
0.0166667 -0.483333 0
0.0333333 -0.483333 0
0.0333333 -0.5 0
0.05 -0.5 0
0.0333333 -0.483333 0
0.05 -0.483333 0
0.05 -0.5 0
0.0666667 -0.5 0
0.05 -0.483333 0
0.0666667 -0.483333 0
0.0666667 -0.5 0
0.0833333 -0.5 0
0.0666667 -0.483333 0
0.0833333 -0.483333 0
0.0833333 -0.5 0
0.1 -0.5 0
0.0833333 -0.483333 0
0.1 -0.483333 0
0.1 -0.5 0
0.116667 -0.5 0
0.1 -0.483333 0
0.116667 -0.483333 0
0.116667 -0.5 0
0.133333 -0.5 0
0.116667 -0.483333 0
0.133333 -0.483333 0
0.133333 -0.5 0
0.15 -0.5 0
0.133333 -0.483333 0
0.15 -0.483333 0
0.15 -0.5 0
0.166667 -0.5 0
0.15 -0.483333 0
0.166667 -0.483333 0
0.166667 -0.5 0
0.183333 -0.5 0
0.166667 -0.483333 0
0.183333 -0.483333 0
0.183333 -0.5 0
0.2 -0.5 0
0.183333 -0.483333 0
0.2 -0.483333 0
0.2 -0.5 0
0.216667 -0.5 0
0.2 -0.483333 0
0.216667 -0.483333 0
0.216667 -0.5 0
0.233333 -0.5 0
0.216667 -0.483333 0
0.233333 -0.483333 0
0.233333 -0.5 0
0.25 -0.5 0
0.233333 -0.483333 0
0.25 -0.483333 0
0.25 -0.5 0
0.266667 -0.5 0
0.25 -0.483333 0
0.266667 -0.483333 0
0.266667 -0.5 0
0.283333 -0.5 0
0.266667 -0.483333 0
0.283333 -0.483333 0
0.283333 -0.5 0
0.3 -0.5 0
0.283333 -0.483333 0
0.3 -0.483333 0
0.3 -0.5 0
0.316667 -0.5 0
0.3 -0.483333 0
0.316667 -0.483333 0
0.316667 -0.5 0
0.333333 -0.5 0
0.316667 -0.483333 0
0.333333 -0.483333 0
0.333333 -0.5 0
0.35 -0.5 0
0.333333 -0.483333 0
0.35 -0.483333 0
0.35 -0.5 0
0.366667 -0.5 0
0.35 -0.483333 0
0.366667 -0.483333 0
0.366667 -0.5 0
0.383333 -0.5 0
0.366667 -0.483333 0
0.383333 -0.483333 0
0.383333 -0.5 0
0.4 -0.5 0
0.383333 -0.483333 0
0.4 -0.483333 0
0.4 -0.5 0
0.416667 -0.5 0
0.4 -0.483333 0
0.416667 -0.483333 0
0.416667 -0.5 0
0.433333 -0.5 0
0.416667 -0.483333 0
0.433333 -0.483333 0
0.433333 -0.5 0
0.45 -0.5 0
0.433333 -0.483333 0
0.45 -0.483333 0
0.45 -0.5 0
0.466667 -0.5 0
0.45 -0.483333 0
0.466667 -0.483333 0
0.466667 -0.5 0
0.483333 -0.5 0
0.466667 -0.483333 0
0.483333 -0.483333 0
0.483333 -0.5 0
0.5 -0.5 0
0.483333 -0.483333 0
0.5 -0.483333 0
0.5 -0.5 0
0.516667 -0.5 0
0.5 -0.483333 0
0.516667 -0.483333 0
0.516667 -0.5 0
0.533333 -0.5 0
0.516667 -0.483333 0
0.533333 -0.483333 0
0.533333 -0.5 0
0.55 -0.5 0
0.533333 -0.483333 0
0.55 -0.483333 0
0.55 -0.5 0
0.566667 -0.5 0
0.55 -0.483333 0
0.566667 -0.483333 0
0.566667 -0.5 0
0.583333 -0.5 0
0.566667 -0.483333 0
0.583333 -0.483333 0
0.583333 -0.5 0
0.6 -0.5 0
0.583333 -0.483333 0
0.6 -0.483333 0
0.6 -0.5 0
0.616667 -0.5 0
0.6 -0.483333 0
0.616667 -0.483333 0
0.616667 -0.5 0
0.633333 -0.5 0
0.616667 -0.483333 0
0.633333 -0.483333 0
0.633333 -0.5 0
0.65 -0.5 0
0.633333 -0.483333 0
0.65 -0.483333 0
0.65 -0.5 0
0.666667 -0.5 0
0.65 -0.483333 0
0.666667 -0.483333 0
0.666667 -0.5 0
0.683333 -0.5 0
0.666667 -0.483333 0
0.683333 -0.483333 0
0.683333 -0.5 0
0.7 -0.5 0
0.683333 -0.483333 0
0.7 -0.483333 0
0.7 -0.5 0
0.716667 -0.5 0
0.7 -0.483333 0
0.716667 -0.483333 0
0.716667 -0.5 0
0.733333 -0.5 0
0.716667 -0.483333 0
0.733333 -0.483333 0
0.733333 -0.5 0
0.75 -0.5 0
0.733333 -0.483333 0
0.75 -0.483333 0
0.75 -0.5 0
0.766667 -0.5 0
0.75 -0.483333 0
0.766667 -0.483333 0
0.766667 -0.5 0
0.783333 -0.5 0
0.766667 -0.483333 0
0.783333 -0.483333 0
0.783333 -0.5 0
0.8 -0.5 0
0.783333 -0.483333 0
0.8 -0.483333 0
0.8 -0.5 0
0.816667 -0.5 0
0.8 -0.483333 0
0.816667 -0.483333 0
0.816667 -0.5 0
0.833333 -0.5 0
0.816667 -0.483333 0
0.833333 -0.483333 0
0.833333 -0.5 0
0.85 -0.5 0
0.833333 -0.483333 0
0.85 -0.483333 0
0.85 -0.5 0
0.866667 -0.5 0
0.85 -0.483333 0
0.866667 -0.483333 0
0.866667 -0.5 0
0.883333 -0.5 0
0.866667 -0.483333 0
0.883333 -0.483333 0
0.883333 -0.5 0
0.9 -0.5 0
0.883333 -0.483333 0
0.9 -0.483333 0
0.9 -0.5 0
0.916667 -0.5 0
0.9 -0.483333 0
0.916667 -0.483333 0
0.916667 -0.5 0
0.933333 -0.5 0
0.916667 -0.483333 0
0.933333 -0.483333 0
0.933333 -0.5 0
0.95 -0.5 0
0.933333 -0.483333 0
0.95 -0.483333 0
0.95 -0.5 0
0.966667 -0.5 0
0.95 -0.483333 0
0.966667 -0.483333 0
0.966667 -0.5 0
0.983333 -0.5 0
0.966667 -0.483333 0
0.983333 -0.483333 0
0.983333 -0.5 0
1 -0.5 0
0.983333 -0.483333 0
1 -0.483333 0
0 -0.483333 0
0.0166667 -0.483333 0
0 -0.466667 0
0.0166667 -0.466667 0
0.0166667 -0.483333 0
0.0333333 -0.483333 0
0.0166667 -0.466667 0
0.0333333 -0.466667 0
0.0333333 -0.483333 0
0.05 -0.483333 0
0.0333333 -0.466667 0
0.05 -0.466667 0
0.05 -0.483333 0
0.0666667 -0.483333 0
0.05 -0.466667 0
0.0666667 -0.466667 0
0.0666667 -0.483333 0
0.0833333 -0.483333 0
0.0666667 -0.466667 0
0.0833333 -0.466667 0
0.0833333 -0.483333 0
0.1 -0.483333 0
0.0833333 -0.466667 0
0.1 -0.466667 0
0.1 -0.483333 0
0.116667 -0.483333 0
0.1 -0.466667 0
0.116667 -0.466667 0
0.116667 -0.483333 0
0.133333 -0.483333 0
0.116667 -0.466667 0
0.133333 -0.466667 0
0.133333 -0.483333 0
0.15 -0.483333 0
0.133333 -0.466667 0
0.15 -0.466667 0
0.15 -0.483333 0
0.166667 -0.483333 0
0.15 -0.466667 0
0.166667 -0.466667 0
0.166667 -0.483333 0
0.183333 -0.483333 0
0.166667 -0.466667 0
0.183333 -0.466667 0
0.183333 -0.483333 0
0.2 -0.483333 0
0.183333 -0.466667 0
0.2 -0.466667 0
0.2 -0.483333 0
0.216667 -0.483333 0
0.2 -0.466667 0
0.216667 -0.466667 0
0.216667 -0.483333 0
0.233333 -0.483333 0
0.216667 -0.466667 0
0.233333 -0.466667 0
0.233333 -0.483333 0
0.25 -0.483333 0
0.233333 -0.466667 0
0.25 -0.466667 0
0.25 -0.483333 0
0.266667 -0.483333 0
0.25 -0.466667 0
0.266667 -0.466667 0
0.266667 -0.483333 0
0.283333 -0.483333 0
0.266667 -0.466667 0
0.283333 -0.466667 0
0.283333 -0.483333 0
0.3 -0.483333 0
0.283333 -0.466667 0
0.3 -0.466667 0
0.3 -0.483333 0
0.316667 -0.483333 0
0.3 -0.466667 0
0.316667 -0.466667 0
0.316667 -0.483333 0
0.333333 -0.483333 0
0.316667 -0.466667 0
0.333333 -0.466667 0
0.333333 -0.483333 0
0.35 -0.483333 0
0.333333 -0.466667 0
0.35 -0.466667 0
0.35 -0.483333 0
0.366667 -0.483333 0
0.35 -0.466667 0
0.366667 -0.466667 0
0.366667 -0.483333 0
0.383333 -0.483333 0
0.366667 -0.466667 0
0.383333 -0.466667 0
0.383333 -0.483333 0
0.4 -0.483333 0
0.383333 -0.466667 0
0.4 -0.466667 0
0.4 -0.483333 0
0.416667 -0.483333 0
0.4 -0.466667 0
0.416667 -0.466667 0
0.416667 -0.483333 0
0.433333 -0.483333 0
0.416667 -0.466667 0
0.433333 -0.466667 0
0.433333 -0.483333 0
0.45 -0.483333 0
0.433333 -0.466667 0
0.45 -0.466667 0
0.45 -0.483333 0
0.466667 -0.483333 0
0.45 -0.466667 0
0.466667 -0.466667 0
0.466667 -0.483333 0
0.483333 -0.483333 0
0.466667 -0.466667 0
0.483333 -0.466667 0
0.483333 -0.483333 0
0.5 -0.483333 0
0.483333 -0.466667 0
0.5 -0.466667 0
0.5 -0.483333 0
0.516667 -0.483333 0
0.5 -0.466667 0
0.516667 -0.466667 0
0.516667 -0.483333 0
0.533333 -0.483333 0
0.516667 -0.466667 0
0.533333 -0.466667 0
0.533333 -0.483333 0
0.55 -0.483333 0
0.533333 -0.466667 0
0.55 -0.466667 0
0.55 -0.483333 0
0.566667 -0.483333 0
0.55 -0.466667 0
0.566667 -0.466667 0
0.566667 -0.483333 0
0.583333 -0.483333 0
0.566667 -0.466667 0
0.583333 -0.466667 0
0.583333 -0.483333 0
0.6 -0.483333 0
0.583333 -0.466667 0
0.6 -0.466667 0
0.6 -0.483333 0
0.616667 -0.483333 0
0.6 -0.466667 0
0.616667 -0.466667 0
0.616667 -0.483333 0
0.633333 -0.483333 0
0.616667 -0.466667 0
0.633333 -0.466667 0
0.633333 -0.483333 0
0.65 -0.483333 0
0.633333 -0.466667 0
0.65 -0.466667 0
0.65 -0.483333 0
0.666667 -0.483333 0
0.65 -0.466667 0
0.666667 -0.466667 0
0.666667 -0.483333 0
0.683333 -0.483333 0
0.666667 -0.466667 0
0.683333 -0.466667 0
0.683333 -0.483333 0
0.7 -0.483333 0
0.683333 -0.466667 0
0.7 -0.466667 0
0.7 -0.483333 0
0.716667 -0.483333 0
0.7 -0.466667 0
0.716667 -0.466667 0
0.716667 -0.483333 0
0.733333 -0.483333 0
0.716667 -0.466667 0
0.733333 -0.466667 0
0.733333 -0.483333 0
0.75 -0.483333 0
0.733333 -0.466667 0
0.75 -0.466667 0
0.75 -0.483333 0
0.766667 -0.483333 0
0.75 -0.466667 0
0.766667 -0.466667 0
0.766667 -0.483333 0
0.783333 -0.483333 0
0.766667 -0.466667 0
0.783333 -0.466667 0
0.783333 -0.483333 0
0.8 -0.483333 0
0.783333 -0.466667 0
0.8 -0.466667 0
0.8 -0.483333 0
0.816667 -0.483333 0
0.8 -0.466667 0
0.816667 -0.466667 0
0.816667 -0.483333 0
0.833333 -0.483333 0
0.816667 -0.466667 0
0.833333 -0.466667 0
0.833333 -0.483333 0
0.85 -0.483333 0
0.833333 -0.466667 0
0.85 -0.466667 0
0.85 -0.483333 0
0.866667 -0.483333 0
0.85 -0.466667 0
0.866667 -0.466667 0
0.866667 -0.483333 0
0.883333 -0.483333 0
0.866667 -0.466667 0
0.883333 -0.466667 0
0.883333 -0.483333 0
0.9 -0.483333 0
0.883333 -0.466667 0
0.9 -0.466667 0
0.9 -0.483333 0
0.916667 -0.483333 0
0.9 -0.466667 0
0.916667 -0.466667 0
0.916667 -0.483333 0
0.933333 -0.483333 0
0.916667 -0.466667 0
0.933333 -0.466667 0
0.933333 -0.483333 0
0.95 -0.483333 0
0.933333 -0.466667 0
0.95 -0.466667 0
0.95 -0.483333 0
0.966667 -0.483333 0
0.95 -0.466667 0
0.966667 -0.466667 0
0.966667 -0.483333 0
0.983333 -0.483333 0
0.966667 -0.466667 0
0.983333 -0.466667 0
0.983333 -0.483333 0
1 -0.483333 0
0.983333 -0.466667 0
1 -0.466667 0
0 -0.466667 0
0.0166667 -0.466667 0
0 -0.45 0
0.0166667 -0.45 0
0.0166667 -0.466667 0
0.0333333 -0.466667 0
0.0166667 -0.45 0
0.0333333 -0.45 0
0.0333333 -0.466667 0
0.05 -0.466667 0
0.0333333 -0.45 0
0.05 -0.45 0
0.05 -0.466667 0
0.0666667 -0.466667 0
0.05 -0.45 0
0.0666667 -0.45 0
0.0666667 -0.466667 0
0.0833333 -0.466667 0
0.0666667 -0.45 0
0.0833333 -0.45 0
0.0833333 -0.466667 0
0.1 -0.466667 0
0.0833333 -0.45 0
0.1 -0.45 0
0.1 -0.466667 0
0.116667 -0.466667 0
0.1 -0.45 0
0.116667 -0.45 0
0.116667 -0.466667 0
0.133333 -0.466667 0
0.116667 -0.45 0
0.133333 -0.45 0
0.133333 -0.466667 0
0.15 -0.466667 0
0.133333 -0.45 0
0.15 -0.45 0
0.15 -0.466667 0
0.166667 -0.466667 0
0.15 -0.45 0
0.166667 -0.45 0
0.166667 -0.466667 0
0.183333 -0.466667 0
0.166667 -0.45 0
0.183333 -0.45 0
0.183333 -0.466667 0
0.2 -0.466667 0
0.183333 -0.45 0
0.2 -0.45 0
0.2 -0.466667 0
0.216667 -0.466667 0
0.2 -0.45 0
0.216667 -0.45 0
0.216667 -0.466667 0
0.233333 -0.466667 0
0.216667 -0.45 0
0.233333 -0.45 0
0.233333 -0.466667 0
0.25 -0.466667 0
0.233333 -0.45 0
0.25 -0.45 0
[...]
POINT_DATA 14400
SCALARS x1_displacement double 1
LOOKUP_TABLE default
0 -0.000672174 0 -0.000263087 -0.000672174 -0.00107903 -0.000263087 -0.000555135 -0.00107903 -0.00131402 -0.000555135 -0.000762066 -0.00131402 -0.00143636 -0.000762066 -0.000886573 -0.00143636 -0.00146911 -0.000886573 -0.000938229 -0.00146911 -0.00142752 -0.000938229 -0.000926117 -0.00142752 -0.00132211 -0.000926117 -0.000857755 -0.00132211 -0.00116095 -0.000857755 -0.000739341 -0.00116095 -0.000950518 -0.000739341 -0.000576085 -0.000950518 -0.000696153 -0.000576085 -0.000372445 -0.000696153 -0.000402385 -0.000372445 -0.000132288 -0.000402385 -7.3111e-05 -0.000132288 0.000140991 -7.3111e-05 0.000288282 0.000140991 0.00044439 0.000288282 0.000678822 0.00044439 0.000775235 0.000678822 0.00109589 0.000775235 0.00113114 0.00109589 0.00153716 0.00113114 0.00150995 0.00153716 0.00200057 0.00150995 0.00190974 0.00200057 0.00248428 0.00190974 0.00232875 0.00248428 0.00298664 0.00232875 0.00276539 0.00298664 0.00350614 0.00276539 0.0032182 0.00350614 0.0040414 0.0032182 0.00368582 0.0040414 0.00459114 0.00368582 0.00416695 0.00459114 0.00515412 0.00416695 0.00466035 0.00515412 0.00572914 0.00466035 0.00516481 0.00572914 0.00631496 0.00516481 0.00567909 0.00631496 0.0069103 0.00567909 0.00620191 0.0069103 0.0075138 0.00620191 0.00673194 0.0075138 0.00812395 0.00673194 0.00726772 0.00812395 0.00873912 0.00726772 0.00780769 0.00873912 0.00935744 0.00780769 0.00835014 0.00935744 0.00997686 0.00835014 0.00889318 0.00997686 0.0105951 0.00889318 0.00943474 0.0105951 0.0112096 0.00943474 0.00997261 0.0112096 0.0118177 0.00997261 0.0105044 0.0118177 0.0124164 0.0105044 0.0110275 0.0124164 0.0130025 0.0110275 0.0115393 0.0130025 0.0135731 0.0115393 0.0120371 0.0135731 0.0141248 0.0120371 0.0125182 0.0141248 0.0146548 0.0125182 0.01298 0.0146548 0.0151603 0.01298 0.0134202 0.0151603 0.0156393 0.0134202 0.0138368 0.0156393 0.0160903 0.0138368 0.0142282 0.0160903 0.0165127 0.0142282 0.0145933 0.0165127 0.0169067 0.0145933 0.0149316 0.0169067 0.0172735 0.0149316 0.0152432 0.0172735 0.0176145 0.0152432 0.0155285 0.0176145 0.0179315 0.0155285 0.0157877 0.0179315 0.0182259 0.0157877 0.0160208 0.0182259 0.0184993 0.0160208 0.016227 0.0184993 0.018754 0.016227 0.0164058 0.018754 0.0189936 0.0164058 0.0165569 0.0189936 0.0192213 0.0165569 0.0166795 0.0192213 0.0194373 0.0166795 0.0167729 0.0194373 0.0196279 0.0167729 0.0168389 0.0196279 0.0197619 0.0168389 0.0168671 0.0197619 0.0198093 0.0168671 0.016844 0.0198093 0.0197799 0.016844 0.016783 0.0197799 0.019725 0.016783 0.0167235 0.019725 0.019692 0.0167235 0.016695 0.019692 0.0196854 0.016695 0.0166945 0 -0.000263087 0 -0.000152634 -0.000263087 -0.000555135 -0.000152634 -0.000297566 -0.000555135 -0.000762066 -0.000297566 -0.000431264 -0.000762066 -0.000886573 -0.000431264 -0.000523695 -0.000886573 -0.000938229 -0.000523695 -0.000568638 -0.000938229 -0.000926117 -0.000568638 -0.000566219 -0.000926117 -0.000857755 -0.000566219 -0.000518963 -0.000857755 -0.000739341 -0.000518963 -0.000430045 -0.000739341 -0.000576085 -0.000430045 -0.000302708 -0.000576085 -0.000372445 -0.000302708 -0.000140057 -0.000372445 -0.000132288 -0.000140057 5.50135e-05 -0.000132288 0.000140991 5.50135e-05 0.000279827 0.000140991 0.00044439 0.000279827 0.000531927 0.00044439 0.000775235 0.000531927 0.00080906 0.000775235 0.00113114 0.00080906 0.00110916 0.00113114 0.00150995 0.00110916 0.00143035 0.00150995 0.00190974 0.00143035 0.00177089 0.00190974 0.00232875 0.00177089 0.0021292 0.00232875 0.00276539 0.0021292 0.0025038 0.00276539 0.0032182 0.0025038 0.00289333 0.0032182 0.00368582 0.00289333 0.00329652 0.00368582 0.00416695 0.00329652 0.00371215 0.00416695 0.00466035 0.00371215 0.00413904 0.00466035 0.00516481 0.00413904 0.00457603 0.00516481 0.00567909 0.00457603 0.00502196 0.00567909 0.00620191 0.00502196 0.00547564 0.00620191 0.00673194 0.00547564 0.0059358 0.00673194 0.00726772 0.0059358 0.00640114 0.00726772 0.00780769 0.00640114 0.00687021 0.00780769 0.00835014 0.00687021 0.00734148 0.00835014 0.00889318 0.00734148 0.00781326 0.00889318 0.00943474 0.00781326 0.00828373 0.00943474 0.00997261 0.00828373 0.00875091 0.00997261 0.0105044 0.00875091 0.00921269 0.0105044 0.0110275 0.00921269 0.00966682 0.0110275 0.0115393 0.00966682 0.0101109 0.0115393 0.0120371 0.0101109 0.0105426 0.0120371 0.0125182 0.0105426 0.0109594 0.0125182 0.01298 0.0109594 0.0113589 0.01298 0.0134202 0.0113589 0.0117387 0.0134202 0.0138368 0.0117387 0.0120967 0.0138368 0.0142282 0.0120967 0.012431 0.0142282 0.0145933 0.012431 0.01274 0.0145933 0.0149316 0.01274 0.0130227 0.0149316 0.0152432 0.0130227 0.0132786 0.0152432 0.0155285 0.0132786 0.0135075 0.0155285 0.0157877 0.0135075 0.013709 0.0157877 0.0160208 0.013709 0.0138816 0.0160208 0.016227 0.0138816 0.014022 0.016227 0.0164058 0.014022 0.0141265 0.0164058 0.0165569 0.0141265 0.0141922 0.0165569 0.0166795 0.0141922 0.0142186 0.0166795 0.0167729 0.0142186 0.0142021 0.0167729 0.0168389 0.0142021 0.0141474 0.0168389 0.0168671 0.0141474 0.0140675 0.0168671 0.016844 0.0140675 0.0139326 0.016844 0.016783 0.0139326 0.0137769 0.016783 0.0167235 0.0137769 0.0136859 0.0167235 0.016695 0.0136859 0.0136644 0.016695 0.0166945 0.0136644 0.0136848 0 -0.000152634 0 -9.54208e-05 -0.000152634 -0.000297566 -9.54208e-05 -0.000176139 -0.000297566 -0.000431264 -0.000176139 -0.000247538 -0.000431264 -0.000523695 -0.000247538 -0.000302145 -0.000523695 -0.000568638 -0.000302145 -0.000329719 -0.000568638 -0.000566219 -0.000329719 -0.000325839 -0.000566219 -0.000518963 -0.000325839 -0.000289192 -0.000518963 -0.000430045 -0.000289192 -0.000220196 -0.000430045 -0.000302708 -0.000220196 -0.000120117 -0.000302708 -0.000140057 -0.000120117 9.37361e-06 -0.000140057 5.50135e-05 9.37361e-06 0.00016644 5.50135e-05 0.000279827 0.00016644 0.000349211 0.000279827 0.000531927 0.000349211 0.000555848 0.000531927 0.00080906 0.000555848 0.000784584 0.00080906 0.00110916 0.000784584 0.00103374 0.00110916 0.00143035 0.00103374 0.00130175 0.00143035 0.00177089 0.00130175 0.00158712 0.00177089 0.0021292 0.00158712 0.00188848 0.0021292 0.0025038 0.00188848 0.00220455 0.0025038 0.00289333 0.00220455 0.00253411 0.00289333 0.00329652 0.00253411 0.00287603 0.00329652 0.00371215 0.00287603 0.00322921 0.00371215 0.00413904 0.00322921 0.00359259 0.00413904 0.00457603 0.00359259 0.00396515 0.00457603 0.00502196 0.00396515 0.00434584 0.00502196 0.00547564 0.00434584 0.00473361 0.00547564 0.0059358 0.00473361 0.00512734 0.0059358 0.00640114 0.00512734 0.00552589 0.00640114 0.00687021 0.00552589 0.005928 0.00687021 0.00734148 0.005928 0.00633233 0.00734148 0.00781326 0.00633233 0.00673741 0.00781326 0.00828373 0.00673741 0.00714167 0.00828373 0.00875091 0.00714167 0.00754335 0.00875091 0.00921269 0.00754335 0.00794058 0.00921269 0.00966682 0.00794058 0.00833135 0.00966682 0.0101109 0.00833135 0.00871349 0.0101109 0.0105426 0.00871349 0.00908474 0.0105426 0.0109594 0.00908474 0.00944275 0.0109594 0.0113589 0.00944275 0.00978508 0.0113589 0.0117387 0.00978508 0.0101093 0.0117387 0.0120967 0.0101093 0.010413 0.0120967 0.012431 0.010413 0.0106938 0.012431 0.01274 0.0106938 0.0109497 0.01274 0.0130227 0.0109497 0.0111792 0.0130227 0.0132786 0.0111792 0.0113812 0.0132786 0.0135075 0.0113812 0.0115558 0.0135075 0.013709 0.0115558 0.0117028 0.013709 0.0138816 0.0117028 0.0118205 0.0138816 0.014022 0.0118205 0.0119034 0.014022 0.0141265 0.0119034 0.0119432 0.0141265 0.0141922 0.0119432 0.0119361 0.0141922 0.0142186 0.0119361 0.0118795 0.0142186 0.0142021 0.0118795 0.0117738 0.0142021 0.0141474 0.0117738 0.0115964 0.0141474 0.0140675 0.0115964 0.011232 0.0140675 0.0139326 0.011232 0.0108581 0.0139326 0.0137769 0.0108581 0.0106885 0.0137769 0.0136859 0.0106885 0.0106376 0.0136859 0.0136644 0.0106376 0.0106472 0.0136644 0.0136848 0.0106472 0.010698 0 -9.54208e-05 0 -6.74879e-05 -9.54208e-05 -0.000176139 -6.74879e-05 -0.000114739 -0.000176139 -0.000247538 -0.000114739 -0.000151831 -0.000247538 -0.000302145 -0.000151831 -0.000178302 -0.000302145 -0.000329719 -0.000178302 -0.000189589 -0.000329719 -0.000325839 -0.000189589 -0.000181074 -0.000325839 -0.000289192 -0.000181074 -0.000150033 -0.000289192 -0.000220196 -0.000150033 -9.52598e-05 -0.000220196 -0.000120117 -9.52598e-05 -1.65948e-05 -0.000120117 9.37361e-06 -1.65948e-05 8.54603e-05 9.37361e-06 0.00016644 8.54603e-05 0.000210007 0.00016644 0.000349211 0.000210007 0.00035592 0.000349211 0.000555848 0.00035592 0.000521961 0.000555848 0.000784584 0.000521961 0.000706848 0.000784584 0.00103374 0.000706848 0.000909302 0.00103374 0.00130175 0.000909302 0.00112808 0.00130175 0.00158712 0.00112808 0.00136198 0.00158712 0.00188848 0.00136198 0.00160987 0.00188848 0.00220455 0.00160987 0.00187068 0.00220455 0.00253411 0.00187068 0.00214338 0.00253411 0.00287603 0.00214338 0.002427 0.00287603 0.00322921 0.002427 0.00272064 0.00322921 0.00359259 0.00272064 0.0030234 0.00359259 0.00396515 0.0030234 0.0033344 0.00396515 0.00434584 0.0033344 0.00365278 0.00434584 0.00473361 0.00365278 0.00397766 0.00473361 0.00512734 0.00397766 0.00430813 0.00512734 0.00552589 0.00430813 0.00464321 0.00552589 0.005928 0.00464321 0.00498189 0.005928 0.00633233 0.00498189 0.00532304 0.00633233 0.00673741 0.00532304 0.00566543 0.00673741 0.00714167 0.00566543 0.0060077 0.00714167 0.00754335 0.0060077 0.00634834 0.00754335 0.00794058 0.00634834 0.00668569 0.00794058 0.00833135 0.00668569 0.00701792 0.00833135 0.00871349 0.00701792 0.00734301 0.00871349 0.00908474 0.00734301 0.00765881 0.00908474 0.00944275 0.00765881 0.00796298 0.00944275 0.00978508 0.00796298 0.00825306 0.00978508 0.0101093 0.00825306 0.00852646 0.0101093 0.010413 0.00852646 0.00878049 0.010413 0.0106938 0.00878049 0.00901246 0.0106938 0.0109497 0.00901246 0.00921981 0.0109497 0.0111792 0.00921981 0.00940034 0.0111792 0.0113812 0.00940034 0.00955266 0.0113812 0.0115558 0.00955266 0.00967676 0.0115558 0.0117028 0.00967676 0.00977429 0.0117028 0.0118205 0.00977429 0.00984546 0.0118205 0.0119034 0.00984546 0.00988475 0.0119034 0.0119432 0.00988475 0.00987844 0.0119432 0.0119361 0.00987844 0.00981682 0.0119361 0.0118795 0.00981682 0.00970867 0.0118795 0.0117738 0.00970867 0.00947777 0.0117738 0.0115964 0.00947777 0.00894286 0.0115964 0.011232 0.00894286 0.0080833 0.011232 0.0108581 0.0080833 0.00765836 0.0108581 0.0106885 0.00765836 0.00762799 0.0106885 0.0106376 0.00762799 0.0076649 0.0106376 0.0106472 0.0076649 0.00771572 0.0106472 0.010698 0.00771572 0.00779686 0 -6.74879e-05 0 -5.47089e-05 -6.74879e-05 -0.000114739 -5.47089e-05 -8.75512e-05 -0.000114739 -0.000151831 -8.75512e-05 -0.000108066 -0.000151831 -0.000178302 -0.000108066 -0.000119557 -0.000178302 -0.000189589 -0.000119557 -0.000120986 -0.000189589 -0.000181074 -0.000120986 -0.000109793 -0.000181074 -0.000150033 -0.000109793 -8.35367e-05 -0.000150033 -9.52598e-05 -8.35367e-05 -4.05658e-05 -9.52598e-05 -1.65948e-05 -4.05658e-05 1.99842e-05 -1.65948e-05 8.54603e-05 1.99842e-05 9.83456e-05 8.54603e-05 0.000210007 9.83456e-05 0.000194294 0.000210007 0.00035592 0.000194294 0.000307295 0.00035592 0.000521961 0.000307295 0.000436615 0.000521961 0.000706848 0.000436615 0.000581403 0.000706848 0.000909302 0.000581403 0.000740749 0.000909302 0.00112808 0.000740749 0.000913728 0.00112808 0.00136198 0.000913728 0.00109942 0.00136198 0.00160987 0.00109942 0.00129695 0.00160987 0.00187068 0.00129695 0.00150546 0.00187068 0.00214338 0.00150546 0.00172414 0.00214338 0.002427 0.00172414 0.00195225 0.002427 0.00272064 0.00195225 0.00218904 0.00272064 0.0030234 0.00218904 0.00243383 0.0030234 0.0033344 0.00243383 0.00268593 0.0033344 0.00365278 0.00268593 0.0029447 0.00365278 0.00397766 0.0029447 0.00320944 0.00397766 0.00430813 0.00320944 0.00347947 0.00430813 0.00464321 0.00347947 0.00375405 0.00464321 0.00498189 0.00375405 0.0040324 0.00498189 0.00532304 0.0040324 0.00431362 0.00532304 0.00566543 0.00431362 0.00459675 0.00566543 0.0060077 0.00459675 0.00488065 0.0060077 0.00634834 0.00488065 0.00516405 0.00634834 0.00668569 0.00516405 0.00544548 0.00668569 0.00701792 0.00544548 0.00572328 0.00701792 0.00734301 0.00572328 0.00599557 0.00734301 0.00765881 0.00599557 0.00626026 0.00765881 0.00796298 0.00626026 0.00651506 0.00796298 0.00825306 0.00651506 0.00675747 0.00825306 0.00852646 0.00675747 0.00698479 0.00852646 0.00878049 0.00698479 0.00719417 0.00878049 0.00901246 0.00719417 0.00738263 0.00901246 0.00921981 0.00738263 0.0075472 0.00921981 0.00940034 0.0075472 0.00768514 0.00940034 0.00955266 0.00768514 0.00779428 0.00955266 0.00967676 0.00779428 0.00787396 0.00967676 0.00977429 0.00787396 0.00792654 0.00977429 0.00984546 0.00792654 0.00795877 0.00984546 0.00988475 0.00795877 0.00796645 0.00988475 0.00987844 0.00796645 0.00793596 0.00987844 0.00981682 0.00793596 0.00784904 0.00981682 0.00970867 0.00784904 0.0075316 0.00970867 0.00947777 0.0075316 0.0067638 0.00947777 0.00894286 0.0067638 0.00567778 0.00894286 0.0080833 0.00567778 0.00490341 0.0080833 0.00765836 0.00490341 0.00476626 0.00765836 0.00762799 0.00476626 0.00481556 0.00762799 0.0076649 0.00481556 0.00487529 0.0076649 0.00771572 0.00487529 0.00494197 0.00771572 0.00779686 0.00494197 0.00503853 0 -5.47089e-05 0 -5.15443e-05 -5.47089e-05 -8.75512e-05 -5.15443e-05 -8.11998e-05 -8.75512e-05 -0.000108066 -8.11998e-05 -9.72787e-05 -0.000108066 -0.000119557 -9.72787e-05 -0.000104243 -0.000119557 -0.000120986 -0.000104243 -0.000103266 -0.000120986 -0.000109793 -0.000103266 -9.35866e-05 -0.000109793 -8.35367e-05 -9.35866e-05 -7.37738e-05 -8.35367e-05 -4.05658e-05 -7.37738e-05 -4.24709e-05 -4.05658e-05 1.99842e-05 -4.24709e-05 1.29327e-06 1.99842e-05 9.83456e-05 1.29327e-06 5.8054e-05 9.83456e-05 0.000194294 5.8054e-05 0.000127963 0.000194294 0.000307295 0.000127963 0.000210872 0.000307295 0.000436615 0.000210872 0.000306415 0.000436615 0.000581403 0.000306415 0.00041408 0.000581403 0.000740749 0.00041408 0.00053327 0.000740749 0.000913728 0.00053327 0.00066334 0.000913728 0.00109942 0.00066334 0.000803636 0.00109942 0.00129695 0.000803636 0.000953515 0.00129695 0.00150546 0.000953515 0.00111236 0.00150546 0.00172414 0.00111236 0.00127958 0.00172414 0.00195225 0.00127958 0.00145464 0.00195225 0.00218904 0.00145464 0.00163702 0.00218904 0.00243383 0.00163702 0.00182624 0.00243383 0.00268593 0.00182624 0.00202185 0.00268593 0.0029447 0.00202185 0.00222339 0.0029447 0.00320944 0.00222339 0.00243043 0.00320944 0.00347947 0.00243043 0.00264252 0.00347947 0.00375405 0.00264252 0.00285916 0.00375405 0.0040324 0.00285916 0.00307982 0.0040324 0.00431362 0.00307982 0.00330388 0.00431362 0.00459675 0.00330388 0.00353062 0.00459675 0.00488065 0.00353062 0.00375916 0.00488065 0.00516405 0.00375916 0.00398848 0.00516405 0.00544548 0.00398848 0.00421729 0.00544548 0.00572328 0.00421729 0.00444411 0.00572328 0.00599557 0.00444411 0.00466718 0.00599557 0.00626026 0.00466718 0.00488451 0.00626026 0.00651506 0.00488451 0.00509384 0.00651506 0.00675747 0.00509384 0.00529272 0.00675747 0.00698479 0.00529272 0.00547844 0.00698479 0.00719417 0.00547844 0.00564811 0.00719417 0.00738263 0.00564811 0.0057987 0.00738263 0.0075472 0.0057987 0.00592711 0.0075472 0.00768514 0.00592711 0.00603038 0.00768514 0.00779428 0.00603038 0.00610595 0.00779428 0.00787396 0.00610595 0.00615199 0.00787396 0.00792654 0.00615199 0.00616871 0.00792654 0.00795877 0.00616871 0.00616171 0.00795877 0.00796645 0.00616171 0.00614212 0.00796645 0.00793596 0.00614212 0.00604161 0.00793596 0.00784904 0.00604161 0.00563752 0.00784904 0.0075316 0.00563752 0.00466073 0.0075316 0.0067638 0.00466073 0.00334496 0.0067638 0.00567778 0.00334496 0.00244174 0.00567778 0.00490341 0.00244174 0.0022397 0.00490341 0.00476626 0.0022397 0.00225761 0.00476626 0.00481556 0.00225761 0.00227164 0.00481556 0.00487529 0.00227164 0.00230157 0.00487529 0.00494197 0.00230157 0.00235572 0.00494197 0.00503853 0.00235572 0.00244913 0 -5.15443e-05 0 -5.48304e-05 -5.15443e-05 -8.11998e-05 -5.48304e-05 -8.86336e-05 -8.11998e-05 -9.72787e-05 -8.86336e-05 -0.000108356 -9.72787e-05 -0.000104243 -0.000108356 -0.000118621 -0.000104243 -0.000103266 -0.000118621 -0.000121697 -0.000103266 -9.35866e-05 -0.000121697 -0.000118121 -9.35866e-05 -7.37738e-05 -0.000118121 -0.000107477 -7.37738e-05 -4.24709e-05 -0.000107477 -8.90149e-05 -4.24709e-05 1.29327e-06 -8.90149e-05 -6.2021e-05 1.29327e-06 5.8054e-05 -6.2021e-05 -2.59829e-05 5.8054e-05 0.000127963 -2.59829e-05 1.93649e-05 0.000127963 0.000210872 1.93649e-05 7.40607e-05 0.000210872 0.000306415 7.40607e-05 0.00013796 0.000306415 0.00041408 0.00013796 0.000210784 0.00041408 0.00053327 0.000210784 0.000292169 0.00053327 0.00066334 0.000292169 0.000381702 0.00066334 0.000803636 0.000381702 0.000478955 0.000803636 0.000953515 0.000478955 0.000583507 0.000953515 0.00111236 0.000583507 0.000694961 0.00111236 0.00127958 0.000694961 0.000812949 0.00127958 0.00145464 0.000812949 0.000937145 0.00145464 0.00163702 0.000937145 0.00106726 0.00163702 0.00182624 0.00106726 0.00120302 0.00182624 0.00202185 0.00120302 0.00134422 0.00202185 0.00222339 0.00134422 0.00149064 0.00222339 0.00243043 0.00149064 0.00164208 0.00243043 0.00264252 0.00164208 0.00179833 0.00264252 0.00285916 0.00179833 0.00195917 0.00285916 0.00307982 0.00195917 0.00212433 0.00307982 0.00330388 0.00212433 0.00229347 0.00330388 0.00353062 0.00229347 0.00246615 0.00353062 0.00375916 0.00246615 0.00264176 0.00375916 0.00398848 0.00264176 0.00281951 0.00398848 0.00421729 0.00281951 0.00299837 0.00421729 0.00444411 0.00299837 0.003177 0.00444411 0.00466718 0.003177 0.00335378 0.00466718 0.00488451 0.00335378 0.00352682 0.00488451 0.00509384 0.00352682 0.00369394 0.00509384 0.00529272 0.00369394 0.00385278 0.00529272 0.00547844 0.00385278 0.00400075 0.00547844 0.00564811 0.00400075 0.00413511 0.00564811 0.0057987 0.00413511 0.004253 0.0057987 0.00592711 0.004253 0.00435158 0.00592711 0.00603038 0.00435158 0.00442839 0.00603038 0.00610595 0.00442839 0.00448175 0.00610595 0.00615199 0.00448175 0.00451119 0.00615199 0.00616871 0.00451119 0.00451839 0.00616871 0.00616171 0.00451839 0.00449947 0.00616171 0.00614212 0.00449947 0.0042825 0.00614212 0.00604161 0.0042825 0.00366143 0.00604161 0.00563752 0.00366143 0.00254871 0.00563752 0.00466073 0.00254871 0.00112515 0.00466073 0.00334496 0.00112515 0.000168922 0.00334496 0.00244174 0.000168922 -6.95115e-05 0.00244174 0.0022397 -6.95115e-05 -6.75769e-05 0.0022397 0.00225761 -6.75769e-05 -8.0536e-05 0.00225761 0.00227164 -8.0536e-05 -9.76373e-05 0.00227164 0.00230157 -9.76373e-05 -9.46143e-05 0.00230157 0.00235572 -9.46143e-05 -5.99065e-05 0.00235572 0.00244913 -5.99065e-05 1.86674e-05 0 -5.48304e-05 0 -6.2688e-05 -5.48304e-05 -8.86336e-05 -6.2688e-05 -0.000105612 -8.86336e-05 -0.000108356 -0.000105612 -0.000134505 -0.000108356 -0.000118621 -0.000134505 -0.000153708 -0.000118621 -0.000121697 -0.000153708 -0.000165952 -0.000121697 -0.000118121 -0.000165952 -0.000172584 -0.000118121 -0.000107477 -0.000172584 -0.000174008 -0.000107477 -8.90149e-05 -0.000174008 -0.000170115 -8.90149e-05 -6.2021e-05 -0.000170115 -0.000160611 -6.2021e-05 -2.59829e-05 -0.000160611 -0.000145207 -2.59829e-05 1.93649e-05 -0.000145207 -0.000123715 1.93649e-05 7.40607e-05 -0.000123715 -9.60755e-05 7.40607e-05 0.00013796 -9.60755e-05 -6.23458e-05 0.00013796 0.000210784 -6.23458e-05 -2.26755e-05 0.000210784 0.000292169 -2.26755e-05 2.27258e-05 0.000292169 0.000381702 2.27258e-05 7.36188e-05 0.000381702 0.000478955 7.36188e-05 0.00012976 0.000478955 0.000583507 0.00012976 0.000190923 0.000583507 0.000694961 0.000190923 0.00025691 0.000694961 0.000812949 0.00025691 0.000327563 0.000812949 0.000937145 0.000327563 0.000402767 0.000937145 0.00106726 0.000402767 0.000482451 0.00106726 0.00120302 0.000482451 0.000566581 0.00120302 0.00134422 0.000566581 0.000655161 0.00134422 0.00149064 0.000655161 0.00074822 0.00149064 0.00164208 0.00074822 0.000845802 0.00164208 0.00179833 0.000845802 0.000947957 0.00179833 0.00195917 0.000947957 0.00105473 0.00195917 0.00212433 0.00105473 0.00116612 0.00212433 0.