# vtk DataFile Version 3.0
#This file was generated by the deal.II library on 2021/2/9 at 22:44:59
ASCII
DATASET UNSTRUCTURED_GRID

POINTS 43200 double
0 -0.5 0
0.0166667 -0.5 0
0 -0.483333 0
0.0166667 -0.483333 0
0.0166667 -0.5 0
0.0333333 -0.5 0
0.0166667 -0.483333 0
0.0333333 -0.483333 0
0.0333333 -0.5 0
0.05 -0.5 0
0.0333333 -0.483333 0
0.05 -0.483333 0
0.05 -0.5 0
0.0666667 -0.5 0
0.05 -0.483333 0
0.0666667 -0.483333 0
0.0666667 -0.5 0
0.0833333 -0.5 0
0.0666667 -0.483333 0
0.0833333 -0.483333 0
0.0833333 -0.5 0
0.1 -0.5 0
0.0833333 -0.483333 0
0.1 -0.483333 0
0.1 -0.5 0
0.116667 -0.5 0
0.1 -0.483333 0
0.116667 -0.483333 0
0.116667 -0.5 0
0.133333 -0.5 0
0.116667 -0.483333 0
0.133333 -0.483333 0
0.133333 -0.5 0
0.15 -0.5 0
0.133333 -0.483333 0
0.15 -0.483333 0
0.15 -0.5 0
0.166667 -0.5 0
0.15 -0.483333 0
0.166667 -0.483333 0
0.166667 -0.5 0
0.183333 -0.5 0
0.166667 -0.483333 0
0.183333 -0.483333 0
0.183333 -0.5 0
0.2 -0.5 0
0.183333 -0.483333 0
0.2 -0.483333 0
0.2 -0.5 0
0.216667 -0.5 0
0.2 -0.483333 0
0.216667 -0.483333 0
0.216667 -0.5 0
0.233333 -0.5 0
0.216667 -0.483333 0
0.233333 -0.483333 0
0.233333 -0.5 0
0.25 -0.5 0
0.233333 -0.483333 0
0.25 -0.483333 0
0.25 -0.5 0
0.266667 -0.5 0
0.25 -0.483333 0
0.266667 -0.483333 0
0.266667 -0.5 0
0.283333 -0.5 0
0.266667 -0.483333 0
0.283333 -0.483333 0
0.283333 -0.5 0
0.3 -0.5 0
0.283333 -0.483333 0
0.3 -0.483333 0
0.3 -0.5 0
0.316667 -0.5 0
0.3 -0.483333 0
0.316667 -0.483333 0
0.316667 -0.5 0
0.333333 -0.5 0
0.316667 -0.483333 0
0.333333 -0.483333 0
0.333333 -0.5 0
0.35 -0.5 0
0.333333 -0.483333 0
0.35 -0.483333 0
0.35 -0.5 0
0.366667 -0.5 0
0.35 -0.483333 0
0.366667 -0.483333 0
0.366667 -0.5 0
0.383333 -0.5 0
0.366667 -0.483333 0
0.383333 -0.483333 0
0.383333 -0.5 0
0.4 -0.5 0
0.383333 -0.483333 0
0.4 -0.483333 0
0.4 -0.5 0
0.416667 -0.5 0
0.4 -0.483333 0
0.416667 -0.483333 0
0.416667 -0.5 0
0.433333 -0.5 0
0.416667 -0.483333 0
0.433333 -0.483333 0
0.433333 -0.5 0
0.45 -0.5 0
0.433333 -0.483333 0
0.45 -0.483333 0
0.45 -0.5 0
0.466667 -0.5 0
0.45 -0.483333 0
0.466667 -0.483333 0
0.466667 -0.5 0
0.483333 -0.5 0
0.466667 -0.483333 0
0.483333 -0.483333 0
0.483333 -0.5 0
0.5 -0.5 0
0.483333 -0.483333 0
0.5 -0.483333 0
0.5 -0.5 0
0.516667 -0.5 0
0.5 -0.483333 0
0.516667 -0.483333 0
0.516667 -0.5 0
0.533333 -0.5 0
0.516667 -0.483333 0
0.533333 -0.483333 0
0.533333 -0.5 0
0.55 -0.5 0
0.533333 -0.483333 0
0.55 -0.483333 0
0.55 -0.5 0
0.566667 -0.5 0
0.55 -0.483333 0
0.566667 -0.483333 0
0.566667 -0.5 0
0.583333 -0.5 0
0.566667 -0.483333 0
0.583333 -0.483333 0
0.583333 -0.5 0
0.6 -0.5 0
0.583333 -0.483333 0
0.6 -0.483333 0
0.6 -0.5 0
0.616667 -0.5 0
0.6 -0.483333 0
0.616667 -0.483333 0
0.616667 -0.5 0
0.633333 -0.5 0
0.616667 -0.483333 0
0.633333 -0.483333 0
0.633333 -0.5 0
0.65 -0.5 0
0.633333 -0.483333 0
0.65 -0.483333 0
0.65 -0.5 0
0.666667 -0.5 0
0.65 -0.483333 0
0.666667 -0.483333 0
0.666667 -0.5 0
0.683333 -0.5 0
0.666667 -0.483333 0
0.683333 -0.483333 0
0.683333 -0.5 0
0.7 -0.5 0
0.683333 -0.483333 0
0.7 -0.483333 0
0.7 -0.5 0
0.716667 -0.5 0
0.7 -0.483333 0
0.716667 -0.483333 0
0.716667 -0.5 0
0.733333 -0.5 0
0.716667 -0.483333 0
0.733333 -0.483333 0
0.733333 -0.5 0
0.75 -0.5 0
0.733333 -0.483333 0
0.75 -0.483333 0
0.75 -0.5 0
0.766667 -0.5 0
0.75 -0.483333 0
0.766667 -0.483333 0
0.766667 -0.5 0
0.783333 -0.5 0
0.766667 -0.483333 0
0.783333 -0.483333 0
0.783333 -0.5 0
0.8 -0.5 0
0.783333 -0.483333 0
0.8 -0.483333 0
0.8 -0.5 0
0.816667 -0.5 0
0.8 -0.483333 0
0.816667 -0.483333 0
0.816667 -0.5 0
0.833333 -0.5 0
0.816667 -0.483333 0
0.833333 -0.483333 0
0.833333 -0.5 0
0.85 -0.5 0
0.833333 -0.483333 0
0.85 -0.483333 0
0.85 -0.5 0
0.866667 -0.5 0
0.85 -0.483333 0
0.866667 -0.483333 0
0.866667 -0.5 0
0.883333 -0.5 0
0.866667 -0.483333 0
0.883333 -0.483333 0
0.883333 -0.5 0
0.9 -0.5 0
0.883333 -0.483333 0
0.9 -0.483333 0
0.9 -0.5 0
0.916667 -0.5 0
0.9 -0.483333 0
0.916667 -0.483333 0
0.916667 -0.5 0
0.933333 -0.5 0
0.916667 -0.483333 0
0.933333 -0.483333 0
0.933333 -0.5 0
0.95 -0.5 0
0.933333 -0.483333 0
0.95 -0.483333 0
0.95 -0.5 0
0.966667 -0.5 0
0.95 -0.483333 0
0.966667 -0.483333 0
0.966667 -0.5 0
0.983333 -0.5 0
0.966667 -0.483333 0
0.983333 -0.483333 0
0.983333 -0.5 0
1 -0.5 0
0.983333 -0.483333 0
1 -0.483333 0
1 -0.5 0
1.01667 -0.5 0
1 -0.483333 0
1.01667 -0.483333 0
1.01667 -0.5 0
1.03333 -0.5 0
1.01667 -0.483333 0
1.03333 -0.483333 0
1.03333 -0.5 0
1.05 -0.5 0
1.03333 -0.483333 0
1.05 -0.483333 0
1.05 -0.5 0
1.06667 -0.5 0
1.05 -0.483333 0
1.06667 -0.483333 0
1.06667 -0.5 0
1.08333 -0.5 0
1.06667 -0.483333 0
1.08333 -0.483333 0
1.08333 -0.5 0
1.1 -0.5 0
1.08333 -0.483333 0
1.1 -0.483333 0
1.1 -0.5 0
1.11667 -0.5 0
1.1 -0.483333 0
1.11667 -0.483333 0
1.11667 -0.5 0
1.13333 -0.5 0
1.11667 -0.483333 0
1.13333 -0.483333 0
1.13333 -0.5 0
1.15 -0.5 0
1.13333 -0.483333 0
1.15 -0.483333 0
1.15 -0.5 0
1.16667 -0.5 0
1.15 -0.483333 0
1.16667 -0.483333 0
1.16667 -0.5 0
1.18333 -0.5 0
1.16667 -0.483333 0
1.18333 -0.483333 0
1.18333 -0.5 0
1.2 -0.5 0
1.18333 -0.483333 0
1.2 -0.483333 0
1.2 -0.5 0
1.21667 -0.5 0
1.2 -0.483333 0
1.21667 -0.483333 0
1.21667 -0.5 0
1.23333 -0.5 0
1.21667 -0.483333 0
1.23333 -0.483333 0
1.23333 -0.5 0
1.25 -0.5 0
1.23333 -0.483333 0
1.25 -0.483333 0
1.25 -0.5 0
1.26667 -0.5 0
1.25 -0.483333 0
1.26667 -0.483333 0
1.26667 -0.5 0
1.28333 -0.5 0
1.26667 -0.483333 0
1.28333 -0.483333 0
1.28333 -0.5 0
1.3 -0.5 0
1.28333 -0.483333 0
1.3 -0.483333 0
1.3 -0.5 0
1.31667 -0.5 0
1.3 -0.483333 0
1.31667 -0.483333 0
1.31667 -0.5 0
1.33333 -0.5 0
1.31667 -0.483333 0
1.33333 -0.483333 0
1.33333 -0.5 0
1.35 -0.5 0
1.33333 -0.483333 0
1.35 -0.483333 0
1.35 -0.5 0
1.36667 -0.5 0
1.35 -0.483333 0
1.36667 -0.483333 0
1.36667 -0.5 0
1.38333 -0.5 0
1.36667 -0.483333 0
1.38333 -0.483333 0
1.38333 -0.5 0
1.4 -0.5 0
1.38333 -0.483333 0
1.4 -0.483333 0
1.4 -0.5 0
1.41667 -0.5 0
1.4 -0.483333 0
1.41667 -0.483333 0
1.41667 -0.5 0
1.43333 -0.5 0
1.41667 -0.483333 0
1.43333 -0.483333 0
1.43333 -0.5 0
1.45 -0.5 0
1.43333 -0.483333 0
1.45 -0.483333 0
1.45 -0.5 0
1.46667 -0.5 0
1.45 -0.483333 0
1.46667 -0.483333 0
1.46667 -0.5 0
1.48333 -0.5 0
1.46667 -0.483333 0
1.48333 -0.483333 0
1.48333 -0.5 0
1.5 -0.5 0
1.48333 -0.483333 0
1.5 -0.483333 0
1.5 -0.5 0
1.51667 -0.5 0
1.5 -0.483333 0
1.51667 -0.483333 0
1.51667 -0.5 0
1.53333 -0.5 0
1.51667 -0.483333 0
1.53333 -0.483333 0
1.53333 -0.5 0
1.55 -0.5 0
1.53333 -0.483333 0
1.55 -0.483333 0
1.55 -0.5 0
1.56667 -0.5 0
1.55 -0.483333 0
1.56667 -0.483333 0
1.56667 -0.5 0
1.58333 -0.5 0
1.56667 -0.483333 0
1.58333 -0.483333 0
1.58333 -0.5 0
1.6 -0.5 0
1.58333 -0.483333 0
1.6 -0.483333 0
1.6 -0.5 0
1.61667 -0.5 0
1.6 -0.483333 0
1.61667 -0.483333 0
1.61667 -0.5 0
1.63333 -0.5 0
1.61667 -0.483333 0
1.63333 -0.483333 0
1.63333 -0.5 0
1.65 -0.5 0
1.63333 -0.483333 0
1.65 -0.483333 0
1.65 -0.5 0
1.66667 -0.5 0
1.65 -0.483333 0
1.66667 -0.483333 0
1.66667 -0.5 0
1.68333 -0.5 0
1.66667 -0.483333 0
1.68333 -0.483333 0
1.68333 -0.5 0
1.7 -0.5 0
1.68333 -0.483333 0
1.7 -0.483333 0
1.7 -0.5 0
1.71667 -0.5 0
1.7 -0.483333 0
1.71667 -0.483333 0
1.71667 -0.5 0
1.73333 -0.5 0
1.71667 -0.483333 0
1.73333 -0.483333 0
1.73333 -0.5 0
1.75 -0.5 0
1.73333 -0.483333 0
1.75 -0.483333 0
1.75 -0.5 0
1.76667 -0.5 0
1.75 -0.483333 0
1.76667 -0.483333 0
1.76667 -0.5 0
1.78333 -0.5 0
1.76667 -0.483333 0
1.78333 -0.483333 0
1.78333 -0.5 0
1.8 -0.5 0
1.78333 -0.483333 0
1.8 -0.483333 0
1.8 -0.5 0
1.81667 -0.5 0
1.8 -0.483333 0
1.81667 -0.483333 0
1.81667 -0.5 0
1.83333 -0.5 0
1.81667 -0.483333 0
1.83333 -0.483333 0
1.83333 -0.5 0
1.85 -0.5 0
1.83333 -0.483333 0
1.85 -0.483333 0
1.85 -0.5 0
1.86667 -0.5 0
1.85 -0.483333 0
1.86667 -0.483333 0
1.86667 -0.5 0
1.88333 -0.5 0
1.86667 -0.483333 0
1.88333 -0.483333 0
1.88333 -0.5 0
1.9 -0.5 0
1.88333 -0.483333 0
1.9 -0.483333 0
1.9 -0.5 0
1.91667 -0.5 0
1.9 -0.483333 0
1.91667 -0.483333 0
1.91667 -0.5 0
1.93333 -0.5 0
1.91667 -0.483333 0
1.93333 -0.483333 0
1.93333 -0.5 0
1.95 -0.5 0
1.93333 -0.483333 0
1.95 -0.483333 0
1.95 -0.5 0
1.96667 -0.5 0
1.95 -0.483333 0
1.96667 -0.483333 0
1.96667 -0.5 0
1.98333 -0.5 0
1.96667 -0.483333 0
1.98333 -0.483333 0
1.98333 -0.5 0
2 -0.5 0
1.98333 -0.483333 0
2 -0.483333 0
2 -0.5 0
2.01667 -0.5 0
2 -0.483333 0
2.01667 -0.483333 0
2.01667 -0.5 0
2.03333 -0.5 0
2.01667 -0.483333 0
2.03333 -0.483333 0
2.03333 -0.5 0
2.05 -0.5 0
2.03333 -0.483333 0
2.05 -0.483333 0
2.05 -0.5 0
2.06667 -0.5 0
2.05 -0.483333 0
2.06667 -0.483333 0
2.06667 -0.5 0
2.08333 -0.5 0
2.06667 -0.483333 0
2.08333 -0.483333 0
2.08333 -0.5 0
2.1 -0.5 0
2.08333 -0.483333 0
2.1 -0.483333 0
2.1 -0.5 0
2.11667 -0.5 0
2.1 -0.483333 0
2.11667 -0.483333 0
2.11667 -0.5 0
2.13333 -0.5 0
2.11667 -0.483333 0
2.13333 -0.483333 0
2.13333 -0.5 0
2.15 -0.5 0
2.13333 -0.483333 0
2.15 -0.483333 0
2.15 -0.5 0
2.16667 -0.5 0
2.15 -0.483333 0
2.16667 -0.483333 0
2.16667 -0.5 0
2.18333 -0.5 0
2.16667 -0.483333 0
2.18333 -0.483333 0
2.18333 -0.5 0
2.2 -0.5 0
2.18333 -0.483333 0
2.2 -0.483333 0
2.2 -0.5 0
2.21667 -0.5 0
2.2 -0.483333 0
2.21667 -0.483333 0
2.21667 -0.5 0
2.23333 -0.5 0
2.21667 -0.483333 0
2.23333 -0.483333 0
2.23333 -0.5 0
2.25 -0.5 0
2.23333 -0.483333 0
2.25 -0.483333 0
2.25 -0.5 0
2.26667 -0.5 0
2.25 -0.483333 0
2.26667 -0.483333 0
2.26667 -0.5 0
2.28333 -0.5 0
2.26667 -0.483333 0
2.28333 -0.483333 0
2.28333 -0.5 0
2.3 -0.5 0
2.28333 -0.483333 0
2.3 -0.483333 0
2.3 -0.5 0
2.31667 -0.5 0
2.3 -0.483333 0
2.31667 -0.483333 0
2.31667 -0.5 0
2.33333 -0.5 0
2.31667 -0.483333 0
2.33333 -0.483333 0
2.33333 -0.5 0
2.35 -0.5 0
2.33333 -0.483333 0
2.35 -0.483333 0
2.35 -0.5 0
2.36667 -0.5 0
2.35 -0.483333 0
2.36667 -0.483333 0
2.36667 -0.5 0
2.38333 -0.5 0
2.36667 -0.483333 0
2.38333 -0.483333 0
2.38333 -0.5 0
2.4 -0.5 0
2.38333 -0.483333 0
2.4 -0.483333 0
2.4 -0.5 0
2.41667 -0.5 0
2.4 -0.483333 0
2.41667 -0.483333 0
2.41667 -0.5 0
2.43333 -0.5 0
2.41667 -0.483333 0
2.43333 -0.483333 0
2.43333 -0.5 0
2.45 -0.5 0
2.43333 -0.483333 0
2.45 -0.483333 0
2.45 -0.5 0
2.46667 -0.5 0
2.45 -0.483333 0
2.46667 -0.483333 0
2.46667 -0.5 0
[...]
POINT_DATA 43200
SCALARS x1_displacement double 1
LOOKUP_TABLE default
0 -2.18178e-05 0 4.09268e-06 -2.18178e-05 -2.69882e-05 4.09268e-06 1.19689e-05 -2.69882e-05 -1.79926e-05 1.19689e-05 2.73981e-05 -1.79926e-05 2.54897e-06 2.73981e-05 5.08184e-05 2.54897e-06 3.33591e-05 5.08184e-05 8.225e-05 3.33591e-05 7.37196e-05 8.225e-05 0.00012168 7.37196e-05 0.000123359 0.00012168 0.000169202 0.000123359 0.000182341 0.000169202 0.000225054 0.000182341 0.000251 0.000225054 0.000289626 0.000251 0.000329902 0.000289626 0.000363447 0.000329902 0.000419807 0.000363447 0.000447182 0.000419807 0.000521645 0.000447182 0.000541611 0.000521645 0.000636489 0.000541611 0.000647616 0.000636489 0.000765528 0.000647616 0.000766157 0.000765528 0.000910038 0.000766157 0.000898253 0.000910038 0.00107134 0.000898253 0.00104495 0.00107134 0.00125077 0.00104495 0.00120729 0.00125077 0.00144961 0.00120729 0.00138626 0.00144961 0.00166902 0.00138626 0.00158274 0.00166902 0.00190999 0.00158274 0.00179749 0.00190999 0.00217324 0.00179749 0.00203104 0.00217324 0.00245917 0.00203104 0.00228365 0.00245917 0.00276778 0.00228365 0.00255531 0.00276778 0.00309861 0.00255531 0.00284564 0.00309861 0.00345079 0.00284564 0.00315396 0.00345079 0.00382301 0.00315396 0.00347924 0.00382301 0.0042136 0.00347924 0.0038202 0.0042136 0.0046207 0.0038202 0.00417541 0.0046207 0.00504235 0.00417541 0.00454334 0.00504235 0.00547669 0.00454334 0.00492255 0.00547669 0.00592209 0.00492255 0.00531175 0.00592209 0.00637731 0.00531175 0.00570992 0.00637731 0.00684155 0.00570992 0.00611635 0.00684155 0.00731448 0.00611635 0.00653067 0.00731448 0.00779616 0.00653067 0.00695277 0.00779616 0.00828693 0.00695277 0.00738274 0.00828693 0.00878723 0.00738274 0.00782075 0.00878723 0.00929742 0.00782075 0.00826686 0.00929742 0.00981754 0.00826686 0.00872091 0.00981754 0.0103471 0.00872091 0.0091824 0.0103471 0.0108851 0.0091824 0.00965034 0.0108851 0.0114297 0.00965034 0.0101232 0.0114297 0.0119784 0.0101232 0.0105991 0.0119784 0.0125282 0.0105991 0.0110755 0.0125282 0.0130756 0.0110755 0.0115496 0.0130756 0.0136167 0.0115496 0.0120186 0.0136167 0.0141479 0.0120186 0.0124795 0.0141479 0.0146657 0.0124795 0.0129295 0.0146657 0.0151669 0.0129295 0.0133664 0.0151669 0.0156492 0.0133664 0.0137881 0.0156492 0.0161107 0.0137881 0.014193 0.0161107 0.0165501 0.014193 0.0145803 0.0165501 0.0169671 0.0145803 0.0149495 0.0169671 0.0173616 0.0149495 0.0153004 0.0173616 0.0177343 0.0153004 0.0156336 0.0177343 0.0180861 0.0156336 0.0159495 0.0180861 0.0184182 0.0159495 0.0162493 0.0184182 0.0187322 0.0162493 0.0165339 0.0187322 0.0190296 0.0165339 0.0168045 0.0190296 0.0193119 0.0168045 0.0170624 0.0193119 0.0195808 0.0170624 0.0173088 0.0195808 0.0198378 0.0173088 0.0175449 0.0198378 0.0200843 0.0175449 0.0177719 0.0200843 0.0203218 0.0177719 0.0179908 0.0203218 0.0205513 0.0179908 0.0182027 0.0205513 0.020774 0.0182027 0.0184084 0.020774 0.0209907 0.0184084 0.0186086 0.0209907 0.0212024 0.0186086 0.0188041 0.0212024 0.0214095 0.0188041 0.0189953 0.0214095 0.0216125 0.0189953 0.0191826 0.0216125 0.0218119 0.0191826 0.0193664 0.0218119 0.0220078 0.0193664 0.0195468 0.0220078 0.0222004 0.0195468 0.019724 0.0222004 0.0223897 0.019724 0.019898 0.0223897 0.0225755 0.019898 0.0200687 0.0225755 0.0227579 0.0200687 0.0202361 0.0227579 0.0229364 0.0202361 0.0203999 0.0229364 0.023111 0.0203999 0.02056 0.023111 0.0232813 0.02056 0.0207162 0.0232813 0.023447 0.0207162 0.0208682 0.023447 0.0236079 0.0208682 0.0210159 0.0236079 0.0237638 0.0210159 0.0211589 0.0237638 0.0239143 0.0211589 0.0212971 0.0239143 0.0240592 0.0212971 0.0214304 0.0240592 0.0241985 0.0214304 0.0215585 0.0241985 0.0243319 0.0215585 0.0216814 0.0243319 0.0244593 0.0216814 0.0217989 0.0244593 0.0245808 0.0217989 0.0219111 0.0245808 0.0246962 0.0219111 0.022018 0.0246962 0.0248057 0.022018 0.0221194 0.0248057 0.0249092 0.0221194 0.0222155 0.0249092 0.0250069 0.0222155 0.0223064 0.0250069 0.0250989 0.0223064 0.0223922 0.0250989 0.0251854 0.0223922 0.022473 0.0251854 0.0252665 0.022473 0.0225489 0.0252665 0.0253423 0.0225489 0.0226201 0.0253423 0.0254132 0.0226201 0.0226867 0.0254132 0.0254793 0.0226867 0.022749 0.0254793 0.0255408 0.022749 0.0228071 0.0255408 0.025598 0.0228071 0.0228613 0.025598 0.025651 0.0228613 0.0229116 0.025651 0.0257001 0.0229116 0.0229583 0.0257001 0.0257456 0.0229583 0.0230017 0.0257456 0.0257875 0.0230017 0.0230418 0.0257875 0.0258261 0.0230418 0.0230788 0.0258261 0.0258617 0.0230788 0.023113 0.0258617 0.0258944 0.023113 0.0231446 0.0258944 0.0259244 0.0231446 0.0231735 0.0259244 0.0259518 0.0231735 0.0232002 0.0259518 0.0259769 0.0232002 0.0232246 0.0259769 0.0259999 0.0232246 0.023247 0.0259999 0.0260208 0.023247 0.0232674 0.0260208 0.0260398 0.0232674 0.0232861 0.0260398 0.026057 0.0232861 0.0233031 0.026057 0.0260727 0.0233031 0.0233185 0.0260727 0.0260868 0.0233185 0.0233326 0.0260868 0.0260996 0.0233326 0.0233453 0.0260996 0.0261111 0.0233453 0.0233568 0.0261111 0.0261214 0.0233568 0.0233672 0.0261214 0.0261306 0.0233672 0.0233765 0.0261306 0.0261389 0.0233765 0.0233849 0.0261389 0.0261462 0.0233849 0.0233924 0.0261462 0.0261528 0.0233924 0.0233991 0.0261528 0.0261585 0.0233991 0.0234051 0.0261585 0.0261636 0.0234051 0.0234104 0.0261636 0.0261681 0.0234104 0.023415 0.0261681 0.0261719 0.023415 0.0234192 0.0261719 0.0261753 0.0234192 0.0234228 0.0261753 0.0261782 0.0234228 0.0234259 0.0261782 0.0261807 0.0234259 0.0234286 0.0261807 0.0261828 0.0234286 0.023431 0.0261828 0.0261845 0.023431 0.0234329 0.0261845 0.026186 0.0234329 0.0234346 0.026186 0.0261871 0.0234346 0.023436 0.0261871 0.026188 0.023436 0.0234372 0.026188 0.0261888 0.0234372 0.0234381 0.0261888 0.0261893 0.0234381 0.0234389 0.0261893 0.0261896 0.0234389 0.0234394 0.0261896 0.0261898 0.0234394 0.0234398 0.0261898 0.0261899 0.0234398 0.0234401 0.0261899 0.0261898 0.0234401 0.0234402 0.0261898 0.0261897 0.0234402 0.0234403 0.0261897 0.0261895 0.0234403 0.0234402 0.0261895 0.0261892 0.0234402 0.0234401 0.0261892 0.0261888 0.0234401 0.0234399 0.0261888 0.0261884 0.0234399 0.0234397 0.0261884 0.026188 0.0234397 0.0234394 0.026188 0.0261875 0.0234394 0.0234391 0.0261875 0.026187 0.0234391 0.0234387 0.026187 0.0261866 0.0234387 0.0234384 0.0261866 0.026186 0.0234384 0.023438 0.026186 0.0261855 0.023438 0.0234376 0.0261855 0.026185 0.0234376 0.0234372 0.026185 0.0261845 0.0234372 0.0234368 0.0261845 0.0261841 0.0234368 0.0234364 0.0261841 0.0261836 0.0234364 0.023436 0.0261836 0.0261831 0.023436 0.0234356 0.0261831 0.0261827 0.0234356 0.0234353 0.0261827 0.0261823 0.0234353 0.0234349 0.0261823 0.0261819 0.0234349 0.0234346 0.0261819 0.0261815 0.0234346 0.0234343 0.0261815 0.0261812 0.0234343 0.023434 0.0261812 0.0261809 0.023434 0.0234337 0.0261809 0.0261806 0.0234337 0.0234334 0.0261806 0.0261803 0.0234334 0.0234332 0.0261803 0.0261801 0.0234332 0.023433 0.0261801 0.0261799 0.023433 0.0234328 0.0261799 0.0261797 0.0234328 0.0234327 0.0261797 0.0261796 0.0234327 0.0234325 0.0261796 0.0261795 0.0234325 0.0234324 0.0261795 0.0261794 0.0234324 0.0234323 0.0261794 0.0261793 0.0234323 0.0234322 0.0261793 0.0261792 0.0234322 0.0234322 0.0261792 0.0261792 0.0234322 0.0234321 0.0261792 0.0261791 0.0234321 0.0234321 0.0261791 0.0261791 0.0234321 0.0234321 0.0261791 0.0261791 0.0234321 0.0234321 0.0261791 0.0261791 0.0234321 0.0234321 0.0261791 0.0261791 0.0234321 0.0234321 0.0261791 0.0261791 0.0234321 0.0234321 0 4.09268e-06 0 1.24975e-05 4.09268e-06 1.19689e-05 1.24975e-05 3.03e-05 1.19689e-05 2.73981e-05 3.03e-05 5.19937e-05 2.73981e-05 5.08184e-05 5.19937e-05 7.86481e-05 5.08184e-05 8.225e-05 7.86481e-05 0.000110911 8.225e-05 0.00012168 0.000110911 0.000149267 0.00012168 0.000169202 0.000149267 0.000194127 0.000169202 0.000225054 0.000194127 0.000245913 0.000225054 0.000289626 0.000245913 0.000305092 0.000289626 0.000363447 0.000305092 0.000372195 0.000363447 0.000447182 0.000372195 0.000447828 0.000447182 0.000541611 0.000447828 0.000532664 0.000541611 0.000647616 0.000532664 0.000627445 0.000647616 0.000766157 0.000627445 0.000732967 0.000766157 0.000898253 0.000732967 0.000850064 0.000898253 0.00104495 0.000850064 0.000979592 0.00104495 0.00120729 0.000979592 0.0011224 0.00120729 0.00138626 0.0011224 0.00127931 0.00138626 0.00158274 0.00127931 0.00145107 0.00158274 0.00179749 0.00145107 0.00163831 0.00179749 0.00203104 0.00163831 0.00184149 0.00203104 0.00228365 0.00184149 0.00206088 0.00228365 0.00255531 0.00206088 0.0022965 0.00255531 0.00284564 0.0022965 0.00254807 0.00284564 0.00315396 0.00254807 0.00281502 0.00315396 0.00347924 0.00281502 0.00309648 0.00347924 0.0038202 0.00309648 0.00339135 0.0038202 0.00417541 0.00339135 0.00369834 0.00417541 0.00454334 0.00369834 0.0040161 0.00454334 0.00492255 0.0040161 0.00434331 0.00492255 0.00531175 0.00434331 0.00467881 0.00531175 0.00570992 0.00467881 0.00502167 0.00570992 0.00611635 0.00502167 0.00537127 0.00611635 0.00653067 0.00537127 0.00572729 0.00653067 0.00695277 0.00572729 0.00608969 0.00695277 0.00738274 0.00608969 0.00645859 0.00738274 0.00782075 0.00645859 0.00683422 0.00782075 0.00826686 0.00683422 0.00721673 0.00826686 0.00872091 0.00721673 0.0076061 0.00872091 0.0091824 0.0076061 0.00800197 0.0091824 0.00965034 0.00800197 0.00840358 0.00965034 0.0101232 0.00840358 0.00880971 0.0101232 0.0105991 0.00880971 0.00921868 0.0105991 0.0110755 0.00921868 0.00962839 0.0110755 0.0115496 0.00962839 0.0100365 0.0115496 0.0120186 0.0100365 0.0104404 0.0120186 0.0124795 0.0104404 0.0108377 0.0124795 0.0129295 0.0108377 0.0112261 0.0129295 0.0133664 0.0112261 0.0116034 0.0133664 0.0137881 0.0116034 0.0119682 0.0137881 0.014193 0.0119682 0.0123191 0.014193 0.0145803 0.0123191 0.0126555 0.0145803 0.0149495 0.0126555 0.0129769 0.0149495 0.0153004 0.0129769 0.0132835 0.0153004 0.0156336 0.0132835 0.0135755 0.0156336 0.0159495 0.0135755 0.0138534 0.0159495 0.0162493 0.0138534 0.0141181 0.0162493 0.0165339 0.0141181 0.0143704 0.0165339 0.0168045 0.0143704 0.0146112 0.0168045 0.0170624 0.0146112 0.0148416 0.0170624 0.0173088 0.0148416 0.0150625 0.0173088 0.0175449 0.0150625 0.0152748 0.0175449 0.0177719 0.0152748 0.0154796 0.0177719 0.0179908 0.0154796 0.0156776 0.0179908 0.0182027 0.0156776 0.0158697 0.0182027 0.0184084 0.0158697 0.0160564 0.0184084 0.0186086 0.0160564 0.0162385 0.0186086 0.0188041 0.0162385 0.0164165 0.0188041 0.0189953 0.0164165 0.0165907 0.0189953 0.0191826 0.0165907 0.0167616 0.0191826 0.0193664 0.0167616 0.0169292 0.0193664 0.0195468 0.0169292 0.0170939 0.0195468 0.019724 0.0170939 0.0172556 0.019724 0.019898 0.0172556 0.0174145 0.019898 0.0200687 0.0174145 0.0175703 0.0200687 0.0202361 0.0175703 0.0177231 0.0202361 0.0203999 0.0177231 0.0178727 0.0203999 0.02056 0.0178727 0.0180189 0.02056 0.0207162 0.0180189 0.0181615 0.0207162 0.0208682 0.0181615 0.0183004 0.0208682 0.0210159 0.0183004 0.0184352 0.0210159 0.0211589 0.0184352 0.018566 0.0211589 0.0212971 0.018566 0.0186923 0.0212971 0.0214304 0.0186923 0.0188142 0.0214304 0.0215585 0.0188142 0.0189315 0.0215585 0.0216814 0.0189315 0.0190441 0.0216814 0.0217989 0.0190441 0.0191519 0.0217989 0.0219111 0.0191519 0.0192549 0.0219111 0.022018 0.0192549 0.019353 0.022018 0.0221194 0.019353 0.0194464 0.0221194 0.0222155 0.0194464 0.0195349 0.0222155 0.0223064 0.0195349 0.0196187 0.0223064 0.0223922 0.0196187 0.019698 0.0223922 0.022473 0.019698 0.0197727 0.022473 0.0225489 0.0197727 0.019843 0.0225489 0.0226201 0.019843 0.0199091 0.0226201 0.0226867 0.0199091 0.0199711 0.0226867 0.022749 0.0199711 0.0200291 0.022749 0.0228071 0.0200291 0.0200834 0.0228071 0.0228613 0.0200834 0.020134 0.0228613 0.0229116 0.020134 0.0201812 0.0229116 0.0229583 0.0201812 0.0202251 0.0229583 0.0230017 0.0202251 0.0202658 0.0230017 0.0230418 0.0202658 0.0203037 0.0230418 0.0230788 0.0203037 0.0203387 0.0230788 0.023113 0.0203387 0.0203711 0.023113 0.0231446 0.0203711 0.020401 0.0231446 0.0231735 0.020401 0.0204286 0.0231735 0.0232002 0.0204286 0.020454 0.0232002 0.0232246 0.020454 0.0204774 0.0232246 0.023247 0.0204774 0.0204989 0.023247 0.0232674 0.0204989 0.0205185 0.0232674 0.0232861 0.0205185 0.0205365 0.0232861 0.0233031 0.0205365 0.020553 0.0233031 0.0233185 0.020553 0.020568 0.0233185 0.0233326 0.020568 0.0205816 0.0233326 0.0233453 0.0205816 0.0205941 0.0233453 0.0233568 0.0205941 0.0206053 0.0233568 0.0233672 0.0206053 0.0206156 0.0233672 0.0233765 0.0206156 0.0206248 0.0233765 0.0233849 0.0206248 0.0206331 0.0233849 0.0233924 0.0206331 0.0206406 0.0233924 0.0233991 0.0206406 0.0206473 0.0233991 0.0234051 0.0206473 0.0206533 0.0234051 0.0234104 0.0206533 0.0206587 0.0234104 0.023415 0.0206587 0.0206634 0.023415 0.0234192 0.0206634 0.0206676 0.0234192 0.0234228 0.0206676 0.0206714 0.0234228 0.0234259 0.0206714 0.0206746 0.0234259 0.0234286 0.0206746 0.0206775 0.0234286 0.023431 0.0206775 0.02068 0.023431 0.0234329 0.02068 0.0206821 0.0234329 0.0234346 0.0206821 0.020684 0.0234346 0.023436 0.020684 0.0206856 0.023436 0.0234372 0.0206856 0.0206869 0.0234372 0.0234381 0.0206869 0.020688 0.0234381 0.0234389 0.020688 0.0206889 0.0234389 0.0234394 0.0206889 0.0206896 0.0234394 0.0234398 0.0206896 0.0206902 0.0234398 0.0234401 0.0206902 0.0206906 0.0234401 0.0234402 0.0206906 0.0206909 0.0234402 0.0234403 0.0206909 0.0206911 0.0234403 0.0234402 0.0206911 0.0206912 0.0234402 0.0234401 0.0206912 0.0206912 0.0234401 0.0234399 0.0206912 0.0206912 0.0234399 0.0234397 0.0206912 0.0206911 0.0234397 0.0234394 0.0206911 0.0206909 0.0234394 0.0234391 0.0206909 0.0206907 0.0234391 0.0234387 0.0206907 0.0206905 0.0234387 0.0234384 0.0206905 0.0206902 0.0234384 0.023438 0.0206902 0.0206899 0.023438 0.0234376 0.0206899 0.0206896 0.0234376 0.0234372 0.0206896 0.0206893 0.0234372 0.0234368 0.0206893 0.020689 0.0234368 0.0234364 0.020689 0.0206887 0.0234364 0.023436 0.0206887 0.0206884 0.023436 0.0234356 0.0206884 0.0206881 0.0234356 0.0234353 0.0206881 0.0206878 0.0234353 0.0234349 0.0206878 0.0206875 0.0234349 0.0234346 0.0206875 0.0206872 0.0234346 0.0234343 0.0206872 0.0206869 0.0234343 0.023434 0.0206869 0.0206867 0.023434 0.0234337 0.0206867 0.0206865 0.0234337 0.0234334 0.0206865 0.0206862 0.0234334 0.0234332 0.0206862 0.020686 0.0234332 0.023433 0.020686 0.0206859 0.023433 0.0234328 0.0206859 0.0206857 0.0234328 0.0234327 0.0206857 0.0206856 0.0234327 0.0234325 0.0206856 0.0206854 0.0234325 0.0234324 0.0206854 0.0206853 0.0234324 0.0234323 0.0206853 0.0206852 0.0234323 0.0234322 0.0206852 0.0206852 0.0234322 0.0234322 0.0206852 0.0206851 0.0234322 0.0234321 0.0206851 0.0206851 0.0234321 0.0234321 0.0206851 0.020685 0.0234321 0.0234321 0.020685 0.020685 0.0234321 0.0234321 0.020685 0.020685 0.0234321 0.0234321 0.020685 0.020685 0.0234321 0.0234321 0.020685 0.020685 0.0234321 0.0234321 0.020685 0.020685 0 1.24975e-05 0 1.63192e-05 1.24975e-05 3.03e-05 1.63192e-05 3.78335e-05 3.03e-05 5.19937e-05 3.78335e-05 6.28545e-05 5.19937e-05 7.86481e-05 6.28545e-05 9.11526e-05 7.86481e-05 0.000110911 9.11526e-05 0.000123234 0.000110911 0.000149267 0.000123234 0.000159653 0.000149267 0.000194127 0.000159653 0.000200942 0.000194127 0.000245913 0.000200942 0.000247609 0.000245913 0.000305092 0.000247609 0.000300162 0.000305092 0.000372195 0.000300162 0.000359125 0.000372195 0.000447828 0.000359125 0.000425054 0.000447828 0.000532664 0.000425054 0.000498542 0.000532664 0.000627445 0.000498542 0.000580223 0.000627445 0.000732967 0.000580223 0.000670769 0.000732967 0.000850064 0.000670769 0.000770886 0.000850064 0.000979592 0.000770886 0.000881306 0.000979592 0.0011224 0.000881306 0.00100277 0.0011224 0.00127931 0.00100277 0.00113601 0.00127931 0.00145107 0.00113601 0.00128172 0.00145107 0.00163831 0.00128172 0.00144051 0.00163831 0.00184149 0.00144051 0.00161288 0.00184149 0.00206088 0.00161288 0.00179917 0.00206088 0.0022965 0.00179917 0.00199947 0.0022965 0.00254807 0.00199947 0.0022136 0.00254807 0.00281502 0.0022136 0.00244108 0.00281502 0.00309648 0.00244108 0.00268109 0.00309648 0.00339135 0.00268109 0.00293255 0.00339135 0.00369834 0.00293255 0.00319415 0.00369834 0.0040161 0.00319415 0.00346448 0.0040161 0.00434331 0.00346448 0.00374217 0.00434331 0.00467881 0.00374217 0.00402601 0.00467881 0.00502167 0.00402601 0.00431509 0.00502167 0.00537127 0.00431509 0.00460885 0.00537127 0.00572729 0.00460885 0.00490712 0.00572729 0.00608969 0.00490712 0.00521004 0.00608969 0.00645859 0.00521004 0.00551801 0.00645859 0.00683422 0.00551801 0.00583156 0.00683422 0.00721673 0.00583156 0.00615118 0.00721673 0.0076061 0.00615118 0.0064772 0.0076061 0.00800197 0.0064772 0.00680959 0.00800197 0.00840358 0.00680959 0.0071479 0.00840358 0.00880971 0.0071479 0.00749117 0.00880971 0.00921868 0.00749117 0.00783789 0.00921868 0.00962839 0.00783789 0.00818614 0.00962839 0.0100365 0.00818614 0.00853365 0.0100365 0.0104404 0.00853365 0.00887802 0.0104404 0.0108377 0.00887802 0.00921686 0.0108377 0.0112261 0.00921686 0.00954803 0.0112261 0.0116034 0.00954803 0.00986968 0.0116034 0.0119682 0.00986968 0.0101804 0.0119682 0.0123191 0.0101804 0.0104793 0.0123191 0.0126555 0.0104793 0.0107659 0.0126555 0.0129769 0.0107659 0.0110399 0.0129769 0.0132835 0.0110399 0.0113015 0.0132835 0.0135755 0.0113015 0.0115513 0.0135755 0.0138534 0.0115513 0.0117897 0.0138534 0.0141181 0.0117897 0.0120174 0.0141181 0.0143704 0.0120174 0.0122352 0.0143704 0.0146112 0.0122352 0.012444 0.0146112 0.0148416 0.012444 0.0126446 0.0148416 0.0150625 0.0126446 0.0128377 0.0150625 0.0152748 0.0128377 0.0130241 0.0152748 0.0154796 0.0130241 0.0132046 0.0154796 0.0156776 0.0132046 0.0133797 0.0156776 0.0158697 0.0133797 0.0135502 0.0158697 0.0160564 0.0135502 0.0137166 0.0160564 0.0162385 0.0137166 0.0138793 0.0162385 0.0164165 0.0138793 0.0140387 0.0164165 0.0165907 0.0140387 0.0141951 0.0165907 0.0167616 0.0141951 0.0143488 0.0167616 0.0169292 0.0143488 0.0145 0.0169292 0.0170939 0.0145 0.0146486 0.0170939 0.0172556 0.0146486 0.0147948 0.0172556 0.0174145 0.0147948 0.0149386 0.0174145 0.0175703 0.0149386 0.0150798 0.0175703 0.0177231 0.0150798 0.0152183 0.0177231 0.0178727 0.0152183 0.015354 0.0178727 0.0180189 0.015354 0.0154867 0.0180189 0.0181615 0.0154867 0.0156162 0.0181615 0.0183004 0.0156162 0.0157423 0.0183004 0.0184352 0.0157423 0.0158649 0.0184352 0.018566 0.0158649 0.0159837 0.018566 0.0186923 0.0159837 0.0160986 0.0186923 0.0188142 0.0160986 0.0162095 0.0188142 0.0189315 0.0162095 0.0163162 0.0189315 0.0190441 0.0163162 0.0164186 0.0190441 0.0191519 0.0164186 0.0165168 0.0191519 0.0192549 0.0165168 0.0166106 0.0192549 0.019353 0.0166106 0.0167 0.019353 0.0194464 0.0167 0.0167851 0.0194464 0.0195349 0.0167851 0.0168659 0.0195349 0.0196187 0.0168659 0.0169425 0.0196187 0.019698 0.0169425 0.0170149 0.019698 0.0197727 0.0170149 0.0170833 0.0197727 0.019843 0.0170833 0.0171477 0.019843 0.0199091 0.0171477 0.0172083 0.0199091 0.0199711 0.0172083 0.0172653 0.0199711 0.0200291 0.0172653 0.0173186 0.0200291 0.0200834 0.0173186 0.0173686 0.0200834 0.020134 0.0173686 0.0174153 0.020134 0.0201812 0.0174153 0.0174589 0.0201812 0.0202251 0.0174589 0.0174996 0.0202251 0.0202658 0.0174996 0.0175374 0.0202658 0.0203037 0.0175374 0.0175725 0.0203037 0.0203387 0.0175725 0.0176051 0.0203387 0.0203711 0.0176051 0.0176353 0.0203711 0.020401 0.0176353 0.0176633 0.020401 0.0204286 0.0176633 0.0176892 0.0204286 0.020454 0.0176892 0.017713 0.020454 0.0204774 0.017713 0.017735 0.0204774 0.0204989 0.017735 0.0177552 0.0204989 0.0205185 0.0177552 0.0177738 0.0205185 0.0205365 0.0177738 0.0177909 0.0205365 0.020553 0.0177909 0.0178065 0.020553 0.020568 0.0178065 0.0178208 0.020568 0.0205816 0.0178208 0.0178338 0.0205816 0.0205941 0.0178338 0.0178457 0.0205941 0.0206053 0.0178457 0.0178566 0.0206053 0.0206156 0.0178566 0.0178664 0.0206156 0.0206248 0.0178664 0.0178753 0.0206248 0.0206331 0.0178753 0.0178834 0.0206331 0.0206406 0.0178834 0.0178907 0.0206406 0.0206473 0.0178907 0.0178973 0.0206473 0.0206533 0.0178973 0.0179032 0.0206533 0.0206587 0.0179032 0.0179084 0.0206587 0.0206634 0.0179084 0.0179132 0.0206634 0.0206676 0.0179132 0.0179174 0.0206676 0.0206714 0.01