# vtk DataFile Version 3.0
#This file was generated by the deal.II library on 2021/2/9 at 22:51:22
ASCII
DATASET UNSTRUCTURED_GRID

POINTS 43200 double
0 -0.5 0
0.0166667 -0.5 0
0 -0.483333 0
0.0166667 -0.483333 0
0.0166667 -0.5 0
0.0333333 -0.5 0
0.0166667 -0.483333 0
0.0333333 -0.483333 0
0.0333333 -0.5 0
0.05 -0.5 0
0.0333333 -0.483333 0
0.05 -0.483333 0
0.05 -0.5 0
0.0666667 -0.5 0
0.05 -0.483333 0
0.0666667 -0.483333 0
0.0666667 -0.5 0
0.0833333 -0.5 0
0.0666667 -0.483333 0
0.0833333 -0.483333 0
0.0833333 -0.5 0
0.1 -0.5 0
0.0833333 -0.483333 0
0.1 -0.483333 0
0.1 -0.5 0
0.116667 -0.5 0
0.1 -0.483333 0
0.116667 -0.483333 0
0.116667 -0.5 0
0.133333 -0.5 0
0.116667 -0.483333 0
0.133333 -0.483333 0
0.133333 -0.5 0
0.15 -0.5 0
0.133333 -0.483333 0
0.15 -0.483333 0
0.15 -0.5 0
0.166667 -0.5 0
0.15 -0.483333 0
0.166667 -0.483333 0
0.166667 -0.5 0
0.183333 -0.5 0
0.166667 -0.483333 0
0.183333 -0.483333 0
0.183333 -0.5 0
0.2 -0.5 0
0.183333 -0.483333 0
0.2 -0.483333 0
0.2 -0.5 0
0.216667 -0.5 0
0.2 -0.483333 0
0.216667 -0.483333 0
0.216667 -0.5 0
0.233333 -0.5 0
0.216667 -0.483333 0
0.233333 -0.483333 0
0.233333 -0.5 0
0.25 -0.5 0
0.233333 -0.483333 0
0.25 -0.483333 0
0.25 -0.5 0
0.266667 -0.5 0
0.25 -0.483333 0
0.266667 -0.483333 0
0.266667 -0.5 0
0.283333 -0.5 0
0.266667 -0.483333 0
0.283333 -0.483333 0
0.283333 -0.5 0
0.3 -0.5 0
0.283333 -0.483333 0
0.3 -0.483333 0
0.3 -0.5 0
0.316667 -0.5 0
0.3 -0.483333 0
0.316667 -0.483333 0
0.316667 -0.5 0
0.333333 -0.5 0
0.316667 -0.483333 0
0.333333 -0.483333 0
0.333333 -0.5 0
0.35 -0.5 0
0.333333 -0.483333 0
0.35 -0.483333 0
0.35 -0.5 0
0.366667 -0.5 0
0.35 -0.483333 0
0.366667 -0.483333 0
0.366667 -0.5 0
0.383333 -0.5 0
0.366667 -0.483333 0
0.383333 -0.483333 0
0.383333 -0.5 0
0.4 -0.5 0
0.383333 -0.483333 0
0.4 -0.483333 0
0.4 -0.5 0
0.416667 -0.5 0
0.4 -0.483333 0
0.416667 -0.483333 0
0.416667 -0.5 0
0.433333 -0.5 0
0.416667 -0.483333 0
0.433333 -0.483333 0
0.433333 -0.5 0
0.45 -0.5 0
0.433333 -0.483333 0
0.45 -0.483333 0
0.45 -0.5 0
0.466667 -0.5 0
0.45 -0.483333 0
0.466667 -0.483333 0
0.466667 -0.5 0
0.483333 -0.5 0
0.466667 -0.483333 0
0.483333 -0.483333 0
0.483333 -0.5 0
0.5 -0.5 0
0.483333 -0.483333 0
0.5 -0.483333 0
0.5 -0.5 0
0.516667 -0.5 0
0.5 -0.483333 0
0.516667 -0.483333 0
0.516667 -0.5 0
0.533333 -0.5 0
0.516667 -0.483333 0
0.533333 -0.483333 0
0.533333 -0.5 0
0.55 -0.5 0
0.533333 -0.483333 0
0.55 -0.483333 0
0.55 -0.5 0
0.566667 -0.5 0
0.55 -0.483333 0
0.566667 -0.483333 0
0.566667 -0.5 0
0.583333 -0.5 0
0.566667 -0.483333 0
0.583333 -0.483333 0
0.583333 -0.5 0
0.6 -0.5 0
0.583333 -0.483333 0
0.6 -0.483333 0
0.6 -0.5 0
0.616667 -0.5 0
0.6 -0.483333 0
0.616667 -0.483333 0
0.616667 -0.5 0
0.633333 -0.5 0
0.616667 -0.483333 0
0.633333 -0.483333 0
0.633333 -0.5 0
0.65 -0.5 0
0.633333 -0.483333 0
0.65 -0.483333 0
0.65 -0.5 0
0.666667 -0.5 0
0.65 -0.483333 0
0.666667 -0.483333 0
0.666667 -0.5 0
0.683333 -0.5 0
0.666667 -0.483333 0
0.683333 -0.483333 0
0.683333 -0.5 0
0.7 -0.5 0
0.683333 -0.483333 0
0.7 -0.483333 0
0.7 -0.5 0
0.716667 -0.5 0
0.7 -0.483333 0
0.716667 -0.483333 0
0.716667 -0.5 0
0.733333 -0.5 0
0.716667 -0.483333 0
0.733333 -0.483333 0
0.733333 -0.5 0
0.75 -0.5 0
0.733333 -0.483333 0
0.75 -0.483333 0
0.75 -0.5 0
0.766667 -0.5 0
0.75 -0.483333 0
0.766667 -0.483333 0
0.766667 -0.5 0
0.783333 -0.5 0
0.766667 -0.483333 0
0.783333 -0.483333 0
0.783333 -0.5 0
0.8 -0.5 0
0.783333 -0.483333 0
0.8 -0.483333 0
0.8 -0.5 0
0.816667 -0.5 0
0.8 -0.483333 0
0.816667 -0.483333 0
0.816667 -0.5 0
0.833333 -0.5 0
0.816667 -0.483333 0
0.833333 -0.483333 0
0.833333 -0.5 0
0.85 -0.5 0
0.833333 -0.483333 0
0.85 -0.483333 0
0.85 -0.5 0
0.866667 -0.5 0
0.85 -0.483333 0
0.866667 -0.483333 0
0.866667 -0.5 0
0.883333 -0.5 0
0.866667 -0.483333 0
0.883333 -0.483333 0
0.883333 -0.5 0
0.9 -0.5 0
0.883333 -0.483333 0
0.9 -0.483333 0
0.9 -0.5 0
0.916667 -0.5 0
0.9 -0.483333 0
0.916667 -0.483333 0
0.916667 -0.5 0
0.933333 -0.5 0
0.916667 -0.483333 0
0.933333 -0.483333 0
0.933333 -0.5 0
0.95 -0.5 0
0.933333 -0.483333 0
0.95 -0.483333 0
0.95 -0.5 0
0.966667 -0.5 0
0.95 -0.483333 0
0.966667 -0.483333 0
0.966667 -0.5 0
0.983333 -0.5 0
0.966667 -0.483333 0
0.983333 -0.483333 0
0.983333 -0.5 0
1 -0.5 0
0.983333 -0.483333 0
1 -0.483333 0
1 -0.5 0
1.01667 -0.5 0
1 -0.483333 0
1.01667 -0.483333 0
1.01667 -0.5 0
1.03333 -0.5 0
1.01667 -0.483333 0
1.03333 -0.483333 0
1.03333 -0.5 0
1.05 -0.5 0
1.03333 -0.483333 0
1.05 -0.483333 0
1.05 -0.5 0
1.06667 -0.5 0
1.05 -0.483333 0
1.06667 -0.483333 0
1.06667 -0.5 0
1.08333 -0.5 0
1.06667 -0.483333 0
1.08333 -0.483333 0
1.08333 -0.5 0
1.1 -0.5 0
1.08333 -0.483333 0
1.1 -0.483333 0
1.1 -0.5 0
1.11667 -0.5 0
1.1 -0.483333 0
1.11667 -0.483333 0
1.11667 -0.5 0
1.13333 -0.5 0
1.11667 -0.483333 0
1.13333 -0.483333 0
1.13333 -0.5 0
1.15 -0.5 0
1.13333 -0.483333 0
1.15 -0.483333 0
1.15 -0.5 0
1.16667 -0.5 0
1.15 -0.483333 0
1.16667 -0.483333 0
1.16667 -0.5 0
1.18333 -0.5 0
1.16667 -0.483333 0
1.18333 -0.483333 0
1.18333 -0.5 0
1.2 -0.5 0
1.18333 -0.483333 0
1.2 -0.483333 0
1.2 -0.5 0
1.21667 -0.5 0
1.2 -0.483333 0
1.21667 -0.483333 0
1.21667 -0.5 0
1.23333 -0.5 0
1.21667 -0.483333 0
1.23333 -0.483333 0
1.23333 -0.5 0
1.25 -0.5 0
1.23333 -0.483333 0
1.25 -0.483333 0
1.25 -0.5 0
1.26667 -0.5 0
1.25 -0.483333 0
1.26667 -0.483333 0
1.26667 -0.5 0
1.28333 -0.5 0
1.26667 -0.483333 0
1.28333 -0.483333 0
1.28333 -0.5 0
1.3 -0.5 0
1.28333 -0.483333 0
1.3 -0.483333 0
1.3 -0.5 0
1.31667 -0.5 0
1.3 -0.483333 0
1.31667 -0.483333 0
1.31667 -0.5 0
1.33333 -0.5 0
1.31667 -0.483333 0
1.33333 -0.483333 0
1.33333 -0.5 0
1.35 -0.5 0
1.33333 -0.483333 0
1.35 -0.483333 0
1.35 -0.5 0
1.36667 -0.5 0
1.35 -0.483333 0
1.36667 -0.483333 0
1.36667 -0.5 0
1.38333 -0.5 0
1.36667 -0.483333 0
1.38333 -0.483333 0
1.38333 -0.5 0
1.4 -0.5 0
1.38333 -0.483333 0
1.4 -0.483333 0
1.4 -0.5 0
1.41667 -0.5 0
1.4 -0.483333 0
1.41667 -0.483333 0
1.41667 -0.5 0
1.43333 -0.5 0
1.41667 -0.483333 0
1.43333 -0.483333 0
1.43333 -0.5 0
1.45 -0.5 0
1.43333 -0.483333 0
1.45 -0.483333 0
1.45 -0.5 0
1.46667 -0.5 0
1.45 -0.483333 0
1.46667 -0.483333 0
1.46667 -0.5 0
1.48333 -0.5 0
1.46667 -0.483333 0
1.48333 -0.483333 0
1.48333 -0.5 0
1.5 -0.5 0
1.48333 -0.483333 0
1.5 -0.483333 0
1.5 -0.5 0
1.51667 -0.5 0
1.5 -0.483333 0
1.51667 -0.483333 0
1.51667 -0.5 0
1.53333 -0.5 0
1.51667 -0.483333 0
1.53333 -0.483333 0
1.53333 -0.5 0
1.55 -0.5 0
1.53333 -0.483333 0
1.55 -0.483333 0
1.55 -0.5 0
1.56667 -0.5 0
1.55 -0.483333 0
1.56667 -0.483333 0
1.56667 -0.5 0
1.58333 -0.5 0
1.56667 -0.483333 0
1.58333 -0.483333 0
1.58333 -0.5 0
1.6 -0.5 0
1.58333 -0.483333 0
1.6 -0.483333 0
1.6 -0.5 0
1.61667 -0.5 0
1.6 -0.483333 0
1.61667 -0.483333 0
1.61667 -0.5 0
1.63333 -0.5 0
1.61667 -0.483333 0
1.63333 -0.483333 0
1.63333 -0.5 0
1.65 -0.5 0
1.63333 -0.483333 0
1.65 -0.483333 0
1.65 -0.5 0
1.66667 -0.5 0
1.65 -0.483333 0
1.66667 -0.483333 0
1.66667 -0.5 0
1.68333 -0.5 0
1.66667 -0.483333 0
1.68333 -0.483333 0
1.68333 -0.5 0
1.7 -0.5 0
1.68333 -0.483333 0
1.7 -0.483333 0
1.7 -0.5 0
1.71667 -0.5 0
1.7 -0.483333 0
1.71667 -0.483333 0
1.71667 -0.5 0
1.73333 -0.5 0
1.71667 -0.483333 0
1.73333 -0.483333 0
1.73333 -0.5 0
1.75 -0.5 0
1.73333 -0.483333 0
1.75 -0.483333 0
1.75 -0.5 0
1.76667 -0.5 0
1.75 -0.483333 0
1.76667 -0.483333 0
1.76667 -0.5 0
1.78333 -0.5 0
1.76667 -0.483333 0
1.78333 -0.483333 0
1.78333 -0.5 0
1.8 -0.5 0
1.78333 -0.483333 0
1.8 -0.483333 0
1.8 -0.5 0
1.81667 -0.5 0
1.8 -0.483333 0
1.81667 -0.483333 0
1.81667 -0.5 0
1.83333 -0.5 0
1.81667 -0.483333 0
1.83333 -0.483333 0
1.83333 -0.5 0
1.85 -0.5 0
1.83333 -0.483333 0
1.85 -0.483333 0
1.85 -0.5 0
1.86667 -0.5 0
1.85 -0.483333 0
1.86667 -0.483333 0
1.86667 -0.5 0
1.88333 -0.5 0
1.86667 -0.483333 0
1.88333 -0.483333 0
1.88333 -0.5 0
1.9 -0.5 0
1.88333 -0.483333 0
1.9 -0.483333 0
1.9 -0.5 0
1.91667 -0.5 0
1.9 -0.483333 0
1.91667 -0.483333 0
1.91667 -0.5 0
1.93333 -0.5 0
1.91667 -0.483333 0
1.93333 -0.483333 0
1.93333 -0.5 0
1.95 -0.5 0
1.93333 -0.483333 0
1.95 -0.483333 0
1.95 -0.5 0
1.96667 -0.5 0
1.95 -0.483333 0
1.96667 -0.483333 0
1.96667 -0.5 0
1.98333 -0.5 0
1.96667 -0.483333 0
1.98333 -0.483333 0
1.98333 -0.5 0
2 -0.5 0
1.98333 -0.483333 0
2 -0.483333 0
2 -0.5 0
2.01667 -0.5 0
2 -0.483333 0
2.01667 -0.483333 0
2.01667 -0.5 0
2.03333 -0.5 0
2.01667 -0.483333 0
2.03333 -0.483333 0
2.03333 -0.5 0
2.05 -0.5 0
2.03333 -0.483333 0
2.05 -0.483333 0
2.05 -0.5 0
2.06667 -0.5 0
2.05 -0.483333 0
2.06667 -0.483333 0
2.06667 -0.5 0
2.08333 -0.5 0
2.06667 -0.483333 0
2.08333 -0.483333 0
2.08333 -0.5 0
2.1 -0.5 0
2.08333 -0.483333 0
2.1 -0.483333 0
2.1 -0.5 0
2.11667 -0.5 0
2.1 -0.483333 0
2.11667 -0.483333 0
2.11667 -0.5 0
2.13333 -0.5 0
2.11667 -0.483333 0
2.13333 -0.483333 0
2.13333 -0.5 0
2.15 -0.5 0
2.13333 -0.483333 0
2.15 -0.483333 0
2.15 -0.5 0
2.16667 -0.5 0
2.15 -0.483333 0
2.16667 -0.483333 0
2.16667 -0.5 0
2.18333 -0.5 0
2.16667 -0.483333 0
2.18333 -0.483333 0
2.18333 -0.5 0
2.2 -0.5 0
2.18333 -0.483333 0
2.2 -0.483333 0
2.2 -0.5 0
2.21667 -0.5 0
2.2 -0.483333 0
2.21667 -0.483333 0
2.21667 -0.5 0
2.23333 -0.5 0
2.21667 -0.483333 0
2.23333 -0.483333 0
2.23333 -0.5 0
2.25 -0.5 0
2.23333 -0.483333 0
2.25 -0.483333 0
2.25 -0.5 0
2.26667 -0.5 0
2.25 -0.483333 0
2.26667 -0.483333 0
2.26667 -0.5 0
2.28333 -0.5 0
2.26667 -0.483333 0
2.28333 -0.483333 0
2.28333 -0.5 0
2.3 -0.5 0
2.28333 -0.483333 0
2.3 -0.483333 0
2.3 -0.5 0
2.31667 -0.5 0
2.3 -0.483333 0
2.31667 -0.483333 0
2.31667 -0.5 0
2.33333 -0.5 0
2.31667 -0.483333 0
2.33333 -0.483333 0
2.33333 -0.5 0
2.35 -0.5 0
2.33333 -0.483333 0
2.35 -0.483333 0
2.35 -0.5 0
2.36667 -0.5 0
2.35 -0.483333 0
2.36667 -0.483333 0
2.36667 -0.5 0
2.38333 -0.5 0
2.36667 -0.483333 0
2.38333 -0.483333 0
2.38333 -0.5 0
2.4 -0.5 0
2.38333 -0.483333 0
2.4 -0.483333 0
2.4 -0.5 0
2.41667 -0.5 0
2.4 -0.483333 0
2.41667 -0.483333 0
2.41667 -0.5 0
2.43333 -0.5 0
2.41667 -0.483333 0
2.43333 -0.483333 0
2.43333 -0.5 0
2.45 -0.5 0
2.43333 -0.483333 0
2.45 -0.483333 0
2.45 -0.5 0
2.46667 -0.5 0
2.45 -0.483333 0
2.46667 -0.483333 0
2.46667 -0.5 0
[...]
POINT_DATA 43200
SCALARS x1_displacement double 1
LOOKUP_TABLE default
0 -3.05919e-05 0 -2.09479e-05 -3.05919e-05 -5.61132e-05 -2.09479e-05 -4.66532e-05 -5.61132e-05 -8.05726e-05 -4.66532e-05 -7.19438e-05 -8.05726e-05 -0.000105677 -7.19438e-05 -9.70738e-05 -0.000105677 -0.000131623 -9.70738e-05 -0.00012233 -0.000131623 -0.000158385 -0.00012233 -0.000147835 -0.000158385 -0.000185823 -0.000147835 -0.000173584 -0.000185823 -0.000213753 -0.000173584 -0.000199486 -0.000213753 -0.000241953 -0.000199486 -0.000225394 -0.000241953 -0.000270177 -0.000225394 -0.000251118 -0.000270177 -0.000298145 -0.000251118 -0.000276428 -0.000298145 -0.000325544 -0.000276428 -0.000301053 -0.000325544 -0.000352019 -0.000301053 -0.000324685 -0.000352019 -0.00037717 -0.000324685 -0.000346968 -0.00037717 -0.000400536 -0.000346968 -0.000367494 -0.000400536 -0.000421589 -0.000367494 -0.000385794 -0.000421589 -0.000439716 -0.000385794 -0.000401333 -0.000439716 -0.000454209 -0.000401333 -0.000413492 -0.000454209 -0.000464243 -0.000413492 -0.000421561 -0.000464243 -0.000468859 -0.000421561 -0.000424724 -0.000468859 -0.000466943 -0.000424724 -0.000422045 -0.000466943 -0.000457203 -0.000422045 -0.000412456 -0.000457203 -0.000438146 -0.000412456 -0.000394744 -0.000438146 -0.000408066 -0.000394744 -0.000367542 -0.000408066 -0.000365027 -0.000367542 -0.000329326 -0.000365027 -0.000306867 -0.000329326 -0.000278425 -0.000306867 -0.00023122 -0.000278425 -0.000213041 -0.00023122 -0.000135567 -0.000213041 -0.000131292 -0.000135567 -1.73239e-05 -0.000131292 -3.12768e-05 -1.73239e-05 0.000126023 -3.12768e-05 8.88216e-05 0.000126023 0.000296734 8.88216e-05 0.00023061 0.000296734 0.000496597 0.00023061 0.000395328 0.000496597 0.00072668 0.000395328 0.00058368 0.00072668 0.000987112 0.00058368 0.00079568 0.000987112 0.00127692 0.00079568 0.00103054 0.00127692 0.00159395 0.00103054 0.00128662 0.00159395 0.00193501 0.00128662 0.00156151 0.00193501 0.00229601 0.00156151 0.00185215 0.00229601 0.00267232 0.00185215 0.0021551 0.00267232 0.00305911 0.0021551 0.00246674 0.00305911 0.00345174 0.00246674 0.00278358 0.00345174 0.00384596 0.00278358 0.00310239 0.00384596 0.00423814 0.00310239 0.00342038 0.00423814 0.00462533 0.00342038 0.00373522 0.00462533 0.00500522 0.00373522 0.00404504 0.00500522 0.0053761 0.00404504 0.00434841 0.0053761 0.00573675 0.00434841 0.00464424 0.00573675 0.00608634 0.00464424 0.00493175 0.00608634 0.00642437 0.00493175 0.00521041 0.00642437 0.00675057 0.00521041 0.00547988 0.00675057 0.00706482 0.00547988 0.00573995 0.00706482 0.00736717 0.00573995 0.00599054 0.00736717 0.00765772 0.00599054 0.00623164 0.00765772 0.00793664 0.00623164 0.00646328 0.00793664 0.0082041 0.00646328 0.00668553 0.0082041 0.00846028 0.00668553 0.00689846 0.00846028 0.00870533 0.00689846 0.00710213 0.00870533 0.00893935 0.00710213 0.00729658 0.00893935 0.00916237 0.00729658 0.0074818 0.00916237 0.00937439 0.0074818 0.00765774 0.00937439 0.0095753 0.00765774 0.00782432 0.0095753 0.00976495 0.00782432 0.00798141 0.00976495 0.00994315 0.00798141 0.00812885 0.00994315 0.0101097 0.00812885 0.00826648 0.0101097 0.0102643 0.00826648 0.00839413 0.0102643 0.0104067 0.00839413 0.00851165 0.0104067 0.0105367 0.00851165 0.00861892 0.0105367 0.0106541 0.00861892 0.00871589 0.0106541 0.010759 0.00871589 0.00880263 0.010759 0.0108515 0.00880263 0.00887932 0.0108515 0.0109319 0.00887932 0.00894635 0.0109319 0.0110008 0.00894635 0.00900433 0.0110008 0.0110592 0.00900433 0.00905412 0.0110592 0.0111085 0.00905412 0.00909691 0.0111085 0.0111504 0.00909691 0.00913419 0.0111504 0.0111871 0.00913419 0.00916782 0.0111871 0.0112212 0.00916782 0.00919996 0.0112212 0.0112558 0.00919996 0.00923315 0.0112558 0.0112945 0.00923315 0.0092702 0.0112945 0.0113411 0.0092702 0.00931423 0.0113411 0.0113999 0.00931423 0.00936861 0.0113999 0.0114755 0.00936861 0.00943687 0.0114755 0.0115726 0.00943687 0.0095227 0.0115726 0.0116962 0.0095227 0.00962978 0.0116962 0.0118511 0.00962978 0.00976169 0.0118511 0.0120416 0.00976169 0.00992171 0.0120416 0.0122717 0.00992171 0.0101126 0.0122717 0.0125439 0.0101126 0.0103363 0.0125439 0.0128595 0.0103363 0.0105937 0.0128595 0.013218 0.0105937 0.0108844 0.013218 0.0136169 0.0108844 0.0112066 0.0136169 0.0140519 0.0112066 0.0115573 0.0140519 0.0145173 0.0115573 0.0119323 0.0145173 0.0150064 0.0119323 0.0123268 0.0150064 0.0155122 0.0123268 0.0127356 0.0155122 0.0160279 0.0127356 0.0131538 0.0160279 0.0165477 0.0131538 0.0135771 0.0165477 0.0170665 0.0135771 0.0140017 0.0170665 0.0175807 0.0140017 0.0144246 0.0175807 0.0180873 0.0144246 0.0148436 0.0180873 0.0185845 0.0148436 0.015257 0.0185845 0.019071 0.015257 0.0156637 0.019071 0.0195463 0.0156637 0.0160629 0.0195463 0.02001 0.0160629 0.0164542 0.02001 0.0204621 0.0164542 0.0168375 0.0204621 0.0209027 0.0168375 0.0172125 0.0209027 0.0213322 0.0172125 0.0175794 0.0213322 0.0217507 0.0175794 0.0179382 0.0217507 0.0221586 0.0179382 0.018289 0.0221586 0.0225562 0.018289 0.018632 0.0225562 0.0229438 0.018632 0.0189674 0.0229438 0.0233216 0.0189674 0.0192952 0.0233216 0.0236899 0.0192952 0.0196155 0.0236899 0.0240489 0.0196155 0.0199286 0.0240489 0.0243988 0.0199286 0.0202345 0.0243988 0.0247398 0.0202345 0.0205332 0.0247398 0.025072 0.0205332 0.0208249 0.025072 0.0253957 0.0208249 0.0211098 0.0253957 0.0257109 0.0211098 0.0213877 0.0257109 0.0260179 0.0213877 0.0216589 0.0260179 0.0263167 0.0216589 0.0219234 0.0263167 0.0266074 0.0219234 0.0221813 0.0266074 0.0268903 0.0221813 0.0224326 0.0268903 0.0271653 0.0224326 0.0226774 0.0271653 0.0274325 0.0226774 0.0229157 0.0274325 0.0276921 0.0229157 0.0231476 0.0276921 0.0279442 0.0231476 0.0233731 0.0279442 0.0281887 0.0233731 0.0235922 0.0281887 0.0284259 0.0235922 0.023805 0.0284259 0.0286556 0.023805 0.0240114 0.0286556 0.028878 0.0240114 0.0242116 0.028878 0.0290932 0.0242116 0.0244056 0.0290932 0.0293012 0.0244056 0.0245934 0.0293012 0.0295021 0.0245934 0.024775 0.0295021 0.029696 0.024775 0.0249505 0.029696 0.0298829 0.0249505 0.0251199 0.0298829 0.0300628 0.0251199 0.0252832 0.0300628 0.030236 0.0252832 0.0254406 0.030236 0.0304023 0.0254406 0.025592 0.0304023 0.030562 0.025592 0.0257375 0.030562 0.0307151 0.0257375 0.0258772 0.0307151 0.0308616 0.0258772 0.0260111 0.0308616 0.0310018 0.0260111 0.0261393 0.0310018 0.0311356 0.0261393 0.0262618 0.0311356 0.0312631 0.0262618 0.0263788 0.0312631 0.0313845 0.0263788 0.0264903 0.0313845 0.0314998 0.0264903 0.0265963 0.0314998 0.0316092 0.0265963 0.0266971 0.0316092 0.0317127 0.0266971 0.0267925 0.0317127 0.0318105 0.0267925 0.0268829 0.0318105 0.0319027 0.0268829 0.0269681 0.0319027 0.0319893 0.0269681 0.0270484 0.0319893 0.0320706 0.0270484 0.0271238 0.0320706 0.0321466 0.0271238 0.0271944 0.0321466 0.0322174 0.0271944 0.0272604 0.0322174 0.0322832 0.0272604 0.0273218 0.0322832 0.032344 0.0273218 0.0273788 0.032344 0.0324001 0.0273788 0.0274314 0.0324001 0.0324515 0.0274314 0.0274798 0.0324515 0.0324984 0.0274798 0.027524 0.0324984 0.032541 0.027524 0.0275643 0.032541 0.0325792 0.0275643 0.0276008 0.0325792 0.0326134 0.0276008 0.0276335 0.0326134 0.0326437 0.0276335 0.0276627 0.0326437 0.0326701 0.0276627 0.0276884 0.0326701 0.032693 0.0276884 0.0277109 0.032693 0.0327124 0.0277109 0.0277302 0.0327124 0.0327286 0.0277302 0.0277467 0.0327286 0.0327418 0.0277467 0.0277604 0.0327418 0.0327522 0.0277604 0.0277716 0.0327522 0.0327601 0.0277716 0.0277804 0.0327601 0.0327657 0.0277804 0.0277872 0.0327657 0.0327693 0.0277872 0.0277922 0.0327693 0.0327714 0.0277922 0.0277956 0.0327714 0.0327721 0.0277956 0.0277978 0.0327721 0.032772 0.0277978 0.027799 0.032772 0.0327714 0.027799 0.0277996 0.0327714 0.0327707 0.0277996 0.0277997 0.0327707 0.0327703 0.0277997 0.0277997 0.0327703 0.0327702 0.0277997 0.0277998 0 -2.09479e-05 0 -1.8596e-05 -2.09479e-05 -4.66532e-05 -1.8596e-05 -4.0445e-05 -4.66532e-05 -7.19438e-05 -4.0445e-05 -6.41419e-05 -7.19438e-05 -9.70738e-05 -6.41419e-05 -8.82205e-05 -9.70738e-05 -0.00012233 -8.82205e-05 -0.000112417 -0.00012233 -0.000147835 -0.000112417 -0.000136675 -0.000147835 -0.000173584 -0.000136675 -0.000160961 -0.000173584 -0.000199486 -0.000160961 -0.000185206 -0.000199486 -0.000225394 -0.000185206 -0.000209302 -0.000225394 -0.000251118 -0.000209302 -0.000233104 -0.000251118 -0.000276428 -0.000233104 -0.000256429 -0.000276428 -0.000301053 -0.000256429 -0.000279058 -0.000301053 -0.000324685 -0.000279058 -0.000300738 -0.000324685 -0.000346968 -0.000300738 -0.000321174 -0.000346968 -0.000367494 -0.000321174 -0.000340032 -0.000367494 -0.000385794 -0.000340032 -0.000356929 -0.000385794 -0.000401333 -0.000356929 -0.000371428 -0.000401333 -0.000413492 -0.000371428 -0.000383034 -0.000413492 -0.000421561 -0.000383034 -0.000391184 -0.000421561 -0.000424724 -0.000391184 -0.000395237 -0.000424724 -0.000422045 -0.000395237 -0.000394471 -0.000422045 -0.000412456 -0.000394471 -0.000388071 -0.000412456 -0.000394744 -0.000388071 -0.000375119 -0.000394744 -0.000367542 -0.000375119 -0.000354594 -0.000367542 -0.000329326 -0.000354594 -0.000325362 -0.000329326 -0.000278425 -0.000325362 -0.000286183 -0.000278425 -0.000213041 -0.000286183 -0.000235714 -0.000213041 -0.000131292 -0.000235714 -0.000172535 -0.000131292 -3.12768e-05 -0.000172535 -9.51844e-05 -3.12768e-05 8.88216e-05 -9.51844e-05 -2.21919e-06 8.88216e-05 0.00023061 -2.21919e-06 0.00010769 0.00023061 0.000395328 0.00010769 0.000235634 0.000395328 0.00058368 0.000235634 0.000382317 0.00058368 0.00079568 0.000382317 0.000547893 0.00079568 0.00103054 0.000547893 0.000731834 0.00103054 0.00128662 0.000731834 0.000932869 0.00128662 0.00156151 0.000932869 0.00114901 0.00156151 0.00185215 0.00114901 0.00137772 0.00185215 0.0021551 0.00137772 0.00161609 0.0021551 0.00246674 0.00161609 0.00186118 0.00246674 0.00278358 0.00186118 0.00211015 0.00278358 0.00310239 0.00211015 0.0023605 0.00310239 0.00342038 0.0023605 0.00261012 0.00342038 0.00373522 0.00261012 0.0028573 0.00373522 0.00404504 0.0028573 0.00310071 0.00404504 0.00434841 0.00310071 0.00333931 0.00434841 0.00464424 0.00333931 0.0035723 0.00464424 0.00493175 0.0035723 0.00379911 0.00493175 0.00521041 0.00379911 0.0040193 0.00521041 0.00547988 0.0040193 0.00423256 0.00547988 0.00573995 0.00423256 0.00443869 0.00573995 0.00599054 0.00443869 0.00463756 0.00599054 0.00623164 0.00463756 0.00482911 0.00623164 0.00646328 0.00482911 0.00501333 0.00646328 0.00668553 0.00501333 0.0051902 0.00668553 0.00689846 0.0051902 0.00535975 0.00689846 0.00710213 0.00535975 0.00552197 0.00710213 0.00729658 0.00552197 0.00567687 0.00729658 0.0074818 0.00567687 0.00582439 0.0074818 0.00765774 0.00582439 0.00596447 0.00765774 0.00782432 0.00596447 0.00609702 0.00782432 0.00798141 0.00609702 0.00622192 0.00798141 0.00812885 0.00622192 0.00633901 0.00812885 0.00826648 0.00633901 0.00644817 0.00826648 0.00839413 0.00644817 0.00654926 0.00839413 0.00851165 0.00654926 0.00664216 0.00851165 0.00861892 0.00664216 0.00672679 0.00861892 0.00871589 0.00672679 0.0068031 0.00871589 0.00880263 0.0068031 0.00687115 0.00880263 0.00887932 0.00687115 0.0069311 0.00887932 0.00894635 0.0069311 0.00698323 0.00894635 0.00900433 0.00698323 0.00702805 0.00900433 0.00905412 0.00702805 0.00706626 0.00905412 0.00909691 0.00706626 0.00709881 0.00909691 0.00913419 0.00709881 0.0071269 0.00913419 0.00916782 0.0071269 0.00715203 0.00916782 0.00919996 0.00715203 0.00717594 0.00919996 0.00923315 0.00717594 0.00720063 0.00923315 0.0092702 0.00720063 0.00722832 0.0092702 0.00931423 0.00722832 0.00726144 0.00931423 0.00936861 0.00726144 0.00730257 0.00936861 0.00943687 0.00730257 0.00735443 0.00943687 0.0095227 0.00735443 0.00741983 0.0095227 0.00962978 0.00741983 0.0075016 0.00962978 0.00976169 0.0075016 0.00760258 0.00976169 0.00992171 0.00760258 0.00772542 0.00992171 0.0101126 0.00772542 0.00787249 0.0101126 0.0103363 0.00787249 0.00804562 0.0103363 0.0105937 0.00804562 0.00824583 0.0105937 0.0108844 0.00824583 0.00847311 0.0108844 0.0112066 0.00847311 0.00872619 0.0112066 0.0115573 0.00872619 0.00900263 0.0115573 0.0119323 0.00900263 0.00929895 0.0119323 0.0123268 0.00929895 0.00961112 0.0123268 0.0127356 0.00961112 0.00993496 0.0127356 0.0131538 0.00993496 0.0102666 0.0131538 0.0135771 0.0102666 0.0106027 0.0135771 0.0140017 0.0106027 0.0109405 0.0140017 0.0144246 0.0109405 0.011278 0.0144246 0.0148436 0.011278 0.0116135 0.0148436 0.015257 0.0116135 0.0119461 0.015257 0.0156637 0.0119461 0.0122748 0.0156637 0.0160629 0.0122748 0.0125991 0.0160629 0.0164542 0.0125991 0.0129187 0.0164542 0.0168375 0.0129187 0.0132332 0.0168375 0.0172125 0.0132332 0.0135426 0.0172125 0.0175794 0.0135426 0.0138467 0.0175794 0.0179382 0.0138467 0.0141454 0.0179382 0.018289 0.0141454 0.0144389 0.018289 0.018632 0.0144389 0.014727 0.018632 0.0189674 0.014727 0.0150098 0.0189674 0.0192952 0.0150098 0.0152873 0.0192952 0.0196155 0.0152873 0.0155594 0.0196155 0.0199286 0.0155594 0.0158263 0.0199286 0.0202345 0.0158263 0.0160878 0.0202345 0.0205332 0.0160878 0.0163441 0.0205332 0.0208249 0.0163441 0.0165951 0.0208249 0.0211098 0.0165951 0.0168409 0.0211098 0.0213877 0.0168409 0.0170814 0.0213877 0.0216589 0.0170814 0.0173167 0.0216589 0.0219234 0.0173167 0.0175468 0.0219234 0.0221813 0.0175468 0.0177716 0.0221813 0.0224326 0.0177716 0.0179913 0.0224326 0.0226774 0.0179913 0.0182057 0.0226774 0.0229157 0.0182057 0.018415 0.0229157 0.0231476 0.018415 0.018619 0.0231476 0.0233731 0.018619 0.0188178 0.0233731 0.0235922 0.0188178 0.0190114 0.0235922 0.023805 0.0190114 0.0191998 0.023805 0.0240114 0.0191998 0.0193829 0.0240114 0.0242116 0.0193829 0.0195608 0.0242116 0.0244056 0.0195608 0.0197335 0.0244056 0.0245934 0.0197335 0.0199009 0.0245934 0.024775 0.0199009 0.0200631 0.024775 0.0249505 0.0200631 0.0202201 0.0249505 0.0251199 0.0202201 0.0203719 0.0251199 0.0252832 0.0203719 0.0205185 0.0252832 0.0254406 0.0205185 0.02066 0.0254406 0.025592 0.02066 0.0207963 0.025592 0.0257375 0.0207963 0.0209275 0.0257375 0.0258772 0.0209275 0.0210536 0.0258772 0.0260111 0.0210536 0.0211747 0.0260111 0.0261393 0.0211747 0.0212908 0.0261393 0.0262618 0.0212908 0.021402 0.0262618 0.0263788 0.021402 0.0215082 0.0263788 0.0264903 0.0215082 0.0216096 0.0264903 0.0265963 0.0216096 0.0217062 0.0265963 0.0266971 0.0217062 0.021798 0.0266971 0.0267925 0.021798 0.0218853 0.0267925 0.0268829 0.0218853 0.0219679 0.0268829 0.0269681 0.0219679 0.022046 0.0269681 0.0270484 0.022046 0.0221196 0.0270484 0.0271238 0.0221196 0.0221889 0.0271238 0.0271944 0.0221889 0.022254 0.0271944 0.0272604 0.022254 0.0223148 0.0272604 0.0273218 0.0223148 0.0223716 0.0273218 0.0273788 0.0223716 0.0224243 0.0273788 0.0274314 0.0224243 0.0224731 0.0274314 0.0274798 0.0224731 0.0225182 0.0274798 0.027524 0.0225182 0.0225595 0.027524 0.0275643 0.0225595 0.0225973 0.0275643 0.0276008 0.0225973 0.0226316 0.0276008 0.0276335 0.0226316 0.0226625 0.0276335 0.0276627 0.0226625 0.0226902 0.0276627 0.0276884 0.0226902 0.0227148 0.0276884 0.0277109 0.0227148 0.0227365 0.0277109 0.0277302 0.0227365 0.0227553 0.0277302 0.0277467 0.0227553 0.0227715 0.0277467 0.0277604 0.0227715 0.0227853 0.0277604 0.0277716 0.0227853 0.0227967 0.0277716 0.0277804 0.0227967 0.0228059 0.0277804 0.0277872 0.0228059 0.0228133 0.0277872 0.0277922 0.0228133 0.0228189 0.0277922 0.0277956 0.0228189 0.022823 0.0277956 0.0277978 0.022823 0.0228259 0.0277978 0.027799 0.0228259 0.0228277 0.027799 0.0277996 0.0228277 0.0228287 0.0277996 0.0277997 0.0228287 0.0228292 0.0277997 0.0277997 0.0228292 0.0228293 0.0277997 0.0277998 0.0228293 0.0228295 0 -1.8596e-05 0 -1.67853e-05 -1.8596e-05 -4.0445e-05 -1.67853e-05 -3.63096e-05 -4.0445e-05 -6.41419e-05 -3.63096e-05 -5.76767e-05 -6.41419e-05 -8.82205e-05 -5.76767e-05 -8.00355e-05 -8.82205e-05 -0.000112417 -8.00355e-05 -0.000102789 -0.000112417 -0.000136675 -0.000102789 -0.000125687 -0.000136675 -0.000160961 -0.000125687 -0.000148597 -0.000160961 -0.000185206 -0.000148597 -0.000171425 -0.000185206 -0.000209302 -0.000171425 -0.000194071 -0.000209302 -0.000233104 -0.000194071 -0.000216415 -0.000233104 -0.000256429 -0.000216415 -0.000238316 -0.000256429 -0.000279058 -0.000238316 -0.000259608 -0.000279058 -0.000300738 -0.000259608 -0.000280096 -0.000300738 -0.000321174 -0.000280096 -0.00029956 -0.000321174 -0.000340032 -0.00029956 -0.000317749 -0.000340032 -0.000356929 -0.000317749 -0.00033438 -0.000356929 -0.000371428 -0.00033438 -0.000349134 -0.000371428 -0.000383034 -0.000349134 -0.000361656 -0.000383034 -0.000391184 -0.000361656 -0.000371548 -0.000391184 -0.000395237 -0.000371548 -0.000378365 -0.000395237 -0.000394471 -0.000378365 -0.000381613 -0.000394471 -0.000388071 -0.000381613 -0.000380738 -0.000388071 -0.000375119 -0.000380738 -0.000375126 -0.000375119 -0.000354594 -0.000375126 -0.000364087 -0.000354594 -0.000325362 -0.000364087 -0.000346854 -0.000325362 -0.000286183 -0.000346854 -0.000322562 -0.000286183 -0.000235714 -0.000322562 -0.000290248 -0.000235714 -0.000172535 -0.000290248 -0.000248832 -0.000172535 -9.51844e-05 -0.000248832 -0.000197129 -9.51844e-05 -2.21919e-06 -0.000197129 -0.000133868 -2.21919e-06 0.00010769 -0.000133868 -5.77552e-05 0.00010769 0.000235634 -5.77552e-05 3.24148e-05 0.000235634 0.000382317 3.24148e-05 0.000137588 0.000382317 0.000547893 0.000137588 0.00025824 0.000547893 0.000731834 0.00025824 0.000394173 0.000731834 0.000932869 0.000394173 0.000544383 0.000932869 0.00114901 0.000544383 0.000707069 0.00114901 0.00137772 0.000707069 0.00087981 0.00137772 0.00161609 0.00087981 0.00105986 0.00161609 0.00186118 0.00105986 0.0012445 0.00186118 0.00211015 0.0012445 0.00143127 0.00211015 0.0023605 0.00143127 0.00161819 0.0023605 0.00261012 0.00161819 0.00180374 0.00261012 0.0028573 0.00180374 0.00198683 0.0028573 0.00310071 0.00198683 0.0021667 0.00310071 0.00333931 0.0021667 0.0023428 0.00333931 0.0035723 0.0023428 0.00251473 0.0035723 0.00379911 0.00251473 0.00268217 0.00379911 0.0040193 0.00268217 0.00284484 0.0040193 0.00423256 0.00284484 0.00300257 0.00423256 0.00443869 0.00300257 0.0031552 0.00443869 0.00463756 0.0031552 0.00330263 0.00463756 0.00482911 0.00330263 0.0034448 0.00482911 0.00501333 0.0034448 0.00358167 0.00501333 0.0051902 0.00358167 0.00371322 0.0051902 0.00535975 0.00371322 0.00383943 0.00535975 0.00552197 0.00383943 0.00396028 0.00552197 0.00567687 0.00396028 0.00407573 0.00567687 0.00582439 0.00407573 0.00418573 0.00582439 0.00596447 0.00418573 0.00429018 0.00596447 0.00609702 0.00429018 0.00438897 0.00609702 0.00622192 0.00438897 0.00448196 0.00622192 0.00633901 0.00448196 0.004569 0.00633901 0.00644817 0.004569 0.00464995 0.00644817 0.00654926 0.00464995 0.00472468 0.00654926 0.00664216 0.00472468 0.00479305 0.00664216 0.00672679 0.00479305 0.00485496 0.00672679 0.0068031 0.00485496 0.00491033 0.0068031 0.00687115 0.00491033 0.00495911 0.00687115 0.0069311 0.00495911 0.00500136 0.0069311 0.00698323 0.00500136 0.0050372 0.00698323 0.00702805 0.0050372 0.00506696 0.00702805 0.00706626 0.00506696 0.00509109 0.00706626 0.00709881 0.00509109 0.00511029 0.00709881 0.0071269 0.00511029 0.00512547 0.0071269 0.00715203 0.00512547 0.00513777 0.00715203 0.00717594 0.00513777 0.00514853 0.00717594 0.00720063 0.00514853 0.00515928 0.00720063 0.00722832 0.00515928 0.00517173 0.00722832 0.00726144 0.00517173 0.00518769 0.00726144 0.00730257 0.00518769 0.0052091 0.00730257 0.00735443 0.0052091 0.00523799 0.00735443 0.00741983 0.00523799 0.00527648 0.00741983 0.0075016 0.00527648 0.0053268 0.0075016 0.00760258 0.0053268 0.00539129 0.00760258 0.00772542 0.00539129 0.00547236 0.00772542 0.00787249 0.00547236 0.00557236 0.00787249 0.00804562 0.00557236 0.00569342 0.00804562 0.00824583 0.00569342 0.00583702 0.00824583 0.00847311 0.00583702 0.00600369 0.00847311 0.00872619 0.00600369 0.00619259 0.00872619 0.00900263 0.00619259 0.00640152 0.00900263 0.00929895 0.00640152 0.00662711 0.00929895 0.00961112 0.00662711 0.00686539 0.00961112 0.00993496 0.00686539 0.00711245 0.00993496 0.0102666 0.00711245 0.00736493 0.0102666 0.0106027 0.00736493 0.00762028 0.0106027 0.0109405 0.00762028 0.00787671 0.0109405 0.011278 0.00787671 0.00