# vtk DataFile Version 3.0
#This file was generated by the deal.II library on 2021/2/9 at 22:55:57
ASCII
DATASET UNSTRUCTURED_GRID

POINTS 43200 double
0 -0.5 0
0.0166667 -0.5 0
0 -0.483333 0
0.0166667 -0.483333 0
0.0166667 -0.5 0
0.0333333 -0.5 0
0.0166667 -0.483333 0
0.0333333 -0.483333 0
0.0333333 -0.5 0
0.05 -0.5 0
0.0333333 -0.483333 0
0.05 -0.483333 0
0.05 -0.5 0
0.0666667 -0.5 0
0.05 -0.483333 0
0.0666667 -0.483333 0
0.0666667 -0.5 0
0.0833333 -0.5 0
0.0666667 -0.483333 0
0.0833333 -0.483333 0
0.0833333 -0.5 0
0.1 -0.5 0
0.0833333 -0.483333 0
0.1 -0.483333 0
0.1 -0.5 0
0.116667 -0.5 0
0.1 -0.483333 0
0.116667 -0.483333 0
0.116667 -0.5 0
0.133333 -0.5 0
0.116667 -0.483333 0
0.133333 -0.483333 0
0.133333 -0.5 0
0.15 -0.5 0
0.133333 -0.483333 0
0.15 -0.483333 0
0.15 -0.5 0
0.166667 -0.5 0
0.15 -0.483333 0
0.166667 -0.483333 0
0.166667 -0.5 0
0.183333 -0.5 0
0.166667 -0.483333 0
0.183333 -0.483333 0
0.183333 -0.5 0
0.2 -0.5 0
0.183333 -0.483333 0
0.2 -0.483333 0
0.2 -0.5 0
0.216667 -0.5 0
0.2 -0.483333 0
0.216667 -0.483333 0
0.216667 -0.5 0
0.233333 -0.5 0
0.216667 -0.483333 0
0.233333 -0.483333 0
0.233333 -0.5 0
0.25 -0.5 0
0.233333 -0.483333 0
0.25 -0.483333 0
0.25 -0.5 0
0.266667 -0.5 0
0.25 -0.483333 0
0.266667 -0.483333 0
0.266667 -0.5 0
0.283333 -0.5 0
0.266667 -0.483333 0
0.283333 -0.483333 0
0.283333 -0.5 0
0.3 -0.5 0
0.283333 -0.483333 0
0.3 -0.483333 0
0.3 -0.5 0
0.316667 -0.5 0
0.3 -0.483333 0
0.316667 -0.483333 0
0.316667 -0.5 0
0.333333 -0.5 0
0.316667 -0.483333 0
0.333333 -0.483333 0
0.333333 -0.5 0
0.35 -0.5 0
0.333333 -0.483333 0
0.35 -0.483333 0
0.35 -0.5 0
0.366667 -0.5 0
0.35 -0.483333 0
0.366667 -0.483333 0
0.366667 -0.5 0
0.383333 -0.5 0
0.366667 -0.483333 0
0.383333 -0.483333 0
0.383333 -0.5 0
0.4 -0.5 0
0.383333 -0.483333 0
0.4 -0.483333 0
0.4 -0.5 0
0.416667 -0.5 0
0.4 -0.483333 0
0.416667 -0.483333 0
0.416667 -0.5 0
0.433333 -0.5 0
0.416667 -0.483333 0
0.433333 -0.483333 0
0.433333 -0.5 0
0.45 -0.5 0
0.433333 -0.483333 0
0.45 -0.483333 0
0.45 -0.5 0
0.466667 -0.5 0
0.45 -0.483333 0
0.466667 -0.483333 0
0.466667 -0.5 0
0.483333 -0.5 0
0.466667 -0.483333 0
0.483333 -0.483333 0
0.483333 -0.5 0
0.5 -0.5 0
0.483333 -0.483333 0
0.5 -0.483333 0
0.5 -0.5 0
0.516667 -0.5 0
0.5 -0.483333 0
0.516667 -0.483333 0
0.516667 -0.5 0
0.533333 -0.5 0
0.516667 -0.483333 0
0.533333 -0.483333 0
0.533333 -0.5 0
0.55 -0.5 0
0.533333 -0.483333 0
0.55 -0.483333 0
0.55 -0.5 0
0.566667 -0.5 0
0.55 -0.483333 0
0.566667 -0.483333 0
0.566667 -0.5 0
0.583333 -0.5 0
0.566667 -0.483333 0
0.583333 -0.483333 0
0.583333 -0.5 0
0.6 -0.5 0
0.583333 -0.483333 0
0.6 -0.483333 0
0.6 -0.5 0
0.616667 -0.5 0
0.6 -0.483333 0
0.616667 -0.483333 0
0.616667 -0.5 0
0.633333 -0.5 0
0.616667 -0.483333 0
0.633333 -0.483333 0
0.633333 -0.5 0
0.65 -0.5 0
0.633333 -0.483333 0
0.65 -0.483333 0
0.65 -0.5 0
0.666667 -0.5 0
0.65 -0.483333 0
0.666667 -0.483333 0
0.666667 -0.5 0
0.683333 -0.5 0
0.666667 -0.483333 0
0.683333 -0.483333 0
0.683333 -0.5 0
0.7 -0.5 0
0.683333 -0.483333 0
0.7 -0.483333 0
0.7 -0.5 0
0.716667 -0.5 0
0.7 -0.483333 0
0.716667 -0.483333 0
0.716667 -0.5 0
0.733333 -0.5 0
0.716667 -0.483333 0
0.733333 -0.483333 0
0.733333 -0.5 0
0.75 -0.5 0
0.733333 -0.483333 0
0.75 -0.483333 0
0.75 -0.5 0
0.766667 -0.5 0
0.75 -0.483333 0
0.766667 -0.483333 0
0.766667 -0.5 0
0.783333 -0.5 0
0.766667 -0.483333 0
0.783333 -0.483333 0
0.783333 -0.5 0
0.8 -0.5 0
0.783333 -0.483333 0
0.8 -0.483333 0
0.8 -0.5 0
0.816667 -0.5 0
0.8 -0.483333 0
0.816667 -0.483333 0
0.816667 -0.5 0
0.833333 -0.5 0
0.816667 -0.483333 0
0.833333 -0.483333 0
0.833333 -0.5 0
0.85 -0.5 0
0.833333 -0.483333 0
0.85 -0.483333 0
0.85 -0.5 0
0.866667 -0.5 0
0.85 -0.483333 0
0.866667 -0.483333 0
0.866667 -0.5 0
0.883333 -0.5 0
0.866667 -0.483333 0
0.883333 -0.483333 0
0.883333 -0.5 0
0.9 -0.5 0
0.883333 -0.483333 0
0.9 -0.483333 0
0.9 -0.5 0
0.916667 -0.5 0
0.9 -0.483333 0
0.916667 -0.483333 0
0.916667 -0.5 0
0.933333 -0.5 0
0.916667 -0.483333 0
0.933333 -0.483333 0
0.933333 -0.5 0
0.95 -0.5 0
0.933333 -0.483333 0
0.95 -0.483333 0
0.95 -0.5 0
0.966667 -0.5 0
0.95 -0.483333 0
0.966667 -0.483333 0
0.966667 -0.5 0
0.983333 -0.5 0
0.966667 -0.483333 0
0.983333 -0.483333 0
0.983333 -0.5 0
1 -0.5 0
0.983333 -0.483333 0
1 -0.483333 0
1 -0.5 0
1.01667 -0.5 0
1 -0.483333 0
1.01667 -0.483333 0
1.01667 -0.5 0
1.03333 -0.5 0
1.01667 -0.483333 0
1.03333 -0.483333 0
1.03333 -0.5 0
1.05 -0.5 0
1.03333 -0.483333 0
1.05 -0.483333 0
1.05 -0.5 0
1.06667 -0.5 0
1.05 -0.483333 0
1.06667 -0.483333 0
1.06667 -0.5 0
1.08333 -0.5 0
1.06667 -0.483333 0
1.08333 -0.483333 0
1.08333 -0.5 0
1.1 -0.5 0
1.08333 -0.483333 0
1.1 -0.483333 0
1.1 -0.5 0
1.11667 -0.5 0
1.1 -0.483333 0
1.11667 -0.483333 0
1.11667 -0.5 0
1.13333 -0.5 0
1.11667 -0.483333 0
1.13333 -0.483333 0
1.13333 -0.5 0
1.15 -0.5 0
1.13333 -0.483333 0
1.15 -0.483333 0
1.15 -0.5 0
1.16667 -0.5 0
1.15 -0.483333 0
1.16667 -0.483333 0
1.16667 -0.5 0
1.18333 -0.5 0
1.16667 -0.483333 0
1.18333 -0.483333 0
1.18333 -0.5 0
1.2 -0.5 0
1.18333 -0.483333 0
1.2 -0.483333 0
1.2 -0.5 0
1.21667 -0.5 0
1.2 -0.483333 0
1.21667 -0.483333 0
1.21667 -0.5 0
1.23333 -0.5 0
1.21667 -0.483333 0
1.23333 -0.483333 0
1.23333 -0.5 0
1.25 -0.5 0
1.23333 -0.483333 0
1.25 -0.483333 0
1.25 -0.5 0
1.26667 -0.5 0
1.25 -0.483333 0
1.26667 -0.483333 0
1.26667 -0.5 0
1.28333 -0.5 0
1.26667 -0.483333 0
1.28333 -0.483333 0
1.28333 -0.5 0
1.3 -0.5 0
1.28333 -0.483333 0
1.3 -0.483333 0
1.3 -0.5 0
1.31667 -0.5 0
1.3 -0.483333 0
1.31667 -0.483333 0
1.31667 -0.5 0
1.33333 -0.5 0
1.31667 -0.483333 0
1.33333 -0.483333 0
1.33333 -0.5 0
1.35 -0.5 0
1.33333 -0.483333 0
1.35 -0.483333 0
1.35 -0.5 0
1.36667 -0.5 0
1.35 -0.483333 0
1.36667 -0.483333 0
1.36667 -0.5 0
1.38333 -0.5 0
1.36667 -0.483333 0
1.38333 -0.483333 0
1.38333 -0.5 0
1.4 -0.5 0
1.38333 -0.483333 0
1.4 -0.483333 0
1.4 -0.5 0
1.41667 -0.5 0
1.4 -0.483333 0
1.41667 -0.483333 0
1.41667 -0.5 0
1.43333 -0.5 0
1.41667 -0.483333 0
1.43333 -0.483333 0
1.43333 -0.5 0
1.45 -0.5 0
1.43333 -0.483333 0
1.45 -0.483333 0
1.45 -0.5 0
1.46667 -0.5 0
1.45 -0.483333 0
1.46667 -0.483333 0
1.46667 -0.5 0
1.48333 -0.5 0
1.46667 -0.483333 0
1.48333 -0.483333 0
1.48333 -0.5 0
1.5 -0.5 0
1.48333 -0.483333 0
1.5 -0.483333 0
1.5 -0.5 0
1.51667 -0.5 0
1.5 -0.483333 0
1.51667 -0.483333 0
1.51667 -0.5 0
1.53333 -0.5 0
1.51667 -0.483333 0
1.53333 -0.483333 0
1.53333 -0.5 0
1.55 -0.5 0
1.53333 -0.483333 0
1.55 -0.483333 0
1.55 -0.5 0
1.56667 -0.5 0
1.55 -0.483333 0
1.56667 -0.483333 0
1.56667 -0.5 0
1.58333 -0.5 0
1.56667 -0.483333 0
1.58333 -0.483333 0
1.58333 -0.5 0
1.6 -0.5 0
1.58333 -0.483333 0
1.6 -0.483333 0
1.6 -0.5 0
1.61667 -0.5 0
1.6 -0.483333 0
1.61667 -0.483333 0
1.61667 -0.5 0
1.63333 -0.5 0
1.61667 -0.483333 0
1.63333 -0.483333 0
1.63333 -0.5 0
1.65 -0.5 0
1.63333 -0.483333 0
1.65 -0.483333 0
1.65 -0.5 0
1.66667 -0.5 0
1.65 -0.483333 0
1.66667 -0.483333 0
1.66667 -0.5 0
1.68333 -0.5 0
1.66667 -0.483333 0
1.68333 -0.483333 0
1.68333 -0.5 0
1.7 -0.5 0
1.68333 -0.483333 0
1.7 -0.483333 0
1.7 -0.5 0
1.71667 -0.5 0
1.7 -0.483333 0
1.71667 -0.483333 0
1.71667 -0.5 0
1.73333 -0.5 0
1.71667 -0.483333 0
1.73333 -0.483333 0
1.73333 -0.5 0
1.75 -0.5 0
1.73333 -0.483333 0
1.75 -0.483333 0
1.75 -0.5 0
1.76667 -0.5 0
1.75 -0.483333 0
1.76667 -0.483333 0
1.76667 -0.5 0
1.78333 -0.5 0
1.76667 -0.483333 0
1.78333 -0.483333 0
1.78333 -0.5 0
1.8 -0.5 0
1.78333 -0.483333 0
1.8 -0.483333 0
1.8 -0.5 0
1.81667 -0.5 0
1.8 -0.483333 0
1.81667 -0.483333 0
1.81667 -0.5 0
1.83333 -0.5 0
1.81667 -0.483333 0
1.83333 -0.483333 0
1.83333 -0.5 0
1.85 -0.5 0
1.83333 -0.483333 0
1.85 -0.483333 0
1.85 -0.5 0
1.86667 -0.5 0
1.85 -0.483333 0
1.86667 -0.483333 0
1.86667 -0.5 0
1.88333 -0.5 0
1.86667 -0.483333 0
1.88333 -0.483333 0
1.88333 -0.5 0
1.9 -0.5 0
1.88333 -0.483333 0
1.9 -0.483333 0
1.9 -0.5 0
1.91667 -0.5 0
1.9 -0.483333 0
1.91667 -0.483333 0
1.91667 -0.5 0
1.93333 -0.5 0
1.91667 -0.483333 0
1.93333 -0.483333 0
1.93333 -0.5 0
1.95 -0.5 0
1.93333 -0.483333 0
1.95 -0.483333 0
1.95 -0.5 0
1.96667 -0.5 0
1.95 -0.483333 0
1.96667 -0.483333 0
1.96667 -0.5 0
1.98333 -0.5 0
1.96667 -0.483333 0
1.98333 -0.483333 0
1.98333 -0.5 0
2 -0.5 0
1.98333 -0.483333 0
2 -0.483333 0
2 -0.5 0
2.01667 -0.5 0
2 -0.483333 0
2.01667 -0.483333 0
2.01667 -0.5 0
2.03333 -0.5 0
2.01667 -0.483333 0
2.03333 -0.483333 0
2.03333 -0.5 0
2.05 -0.5 0
2.03333 -0.483333 0
2.05 -0.483333 0
2.05 -0.5 0
2.06667 -0.5 0
2.05 -0.483333 0
2.06667 -0.483333 0
2.06667 -0.5 0
2.08333 -0.5 0
2.06667 -0.483333 0
2.08333 -0.483333 0
2.08333 -0.5 0
2.1 -0.5 0
2.08333 -0.483333 0
2.1 -0.483333 0
2.1 -0.5 0
2.11667 -0.5 0
2.1 -0.483333 0
2.11667 -0.483333 0
2.11667 -0.5 0
2.13333 -0.5 0
2.11667 -0.483333 0
2.13333 -0.483333 0
2.13333 -0.5 0
2.15 -0.5 0
2.13333 -0.483333 0
2.15 -0.483333 0
2.15 -0.5 0
2.16667 -0.5 0
2.15 -0.483333 0
2.16667 -0.483333 0
2.16667 -0.5 0
2.18333 -0.5 0
2.16667 -0.483333 0
2.18333 -0.483333 0
2.18333 -0.5 0
2.2 -0.5 0
2.18333 -0.483333 0
2.2 -0.483333 0
2.2 -0.5 0
2.21667 -0.5 0
2.2 -0.483333 0
2.21667 -0.483333 0
2.21667 -0.5 0
2.23333 -0.5 0
2.21667 -0.483333 0
2.23333 -0.483333 0
2.23333 -0.5 0
2.25 -0.5 0
2.23333 -0.483333 0
2.25 -0.483333 0
2.25 -0.5 0
2.26667 -0.5 0
2.25 -0.483333 0
2.26667 -0.483333 0
2.26667 -0.5 0
2.28333 -0.5 0
2.26667 -0.483333 0
2.28333 -0.483333 0
2.28333 -0.5 0
2.3 -0.5 0
2.28333 -0.483333 0
2.3 -0.483333 0
2.3 -0.5 0
2.31667 -0.5 0
2.3 -0.483333 0
2.31667 -0.483333 0
2.31667 -0.5 0
2.33333 -0.5 0
2.31667 -0.483333 0
2.33333 -0.483333 0
2.33333 -0.5 0
2.35 -0.5 0
2.33333 -0.483333 0
2.35 -0.483333 0
2.35 -0.5 0
2.36667 -0.5 0
2.35 -0.483333 0
2.36667 -0.483333 0
2.36667 -0.5 0
2.38333 -0.5 0
2.36667 -0.483333 0
2.38333 -0.483333 0
2.38333 -0.5 0
2.4 -0.5 0
2.38333 -0.483333 0
2.4 -0.483333 0
2.4 -0.5 0
2.41667 -0.5 0
2.4 -0.483333 0
2.41667 -0.483333 0
2.41667 -0.5 0
2.43333 -0.5 0
2.41667 -0.483333 0
2.43333 -0.483333 0
2.43333 -0.5 0
2.45 -0.5 0
2.43333 -0.483333 0
2.45 -0.483333 0
2.45 -0.5 0
2.46667 -0.5 0
2.45 -0.483333 0
2.46667 -0.483333 0
2.46667 -0.5 0
[...]
POINT_DATA 43200
SCALARS x1_displacement double 1
LOOKUP_TABLE default
0 0.000191253 0 0.000198967 0.000191253 0.000398559 0.000198967 0.000453304 0.000398559 0.000647654 0.000453304 0.000730725 0.000647654 0.000943296 0.000730725 0.00103433 0.000943296 0.00128137 0.00103433 0.00136566 0.00128137 0.00165745 0.00136566 0.00172439 0.00165745 0.00206732 0.00172439 0.00210917 0.00206732 0.00250726 0.00210917 0.00251822 0.00250726 0.00297397 0.00251822 0.00294962 0.00297397 0.00346454 0.00294962 0.00340144 0.00346454 0.00397639 0.00340144 0.00387183 0.00397639 0.00450719 0.00387183 0.00435901 0.00450719 0.00505484 0.00435901 0.00486135 0.00505484 0.00561742 0.00486135 0.00537727 0.00561742 0.00619321 0.00537727 0.00590532 0.00619321 0.00678059 0.00590532 0.00644414 0.00678059 0.00737811 0.00644414 0.00699246 0.00737811 0.0079844 0.00699246 0.00754908 0.0079844 0.00859821 0.00754908 0.00811289 0.00859821 0.00921837 0.00811289 0.00868286 0.00921837 0.00984382 0.00868286 0.00925802 0.00984382 0.0104736 0.00925802 0.00983748 0.0104736 0.0111067 0.00983748 0.0104204 0.0111067 0.0117423 0.0104204 0.011006 0.0117423 0.0123798 0.011006 0.0115937 0.0123798 0.0130183 0.0115937 0.0121827 0.0130183 0.0136573 0.0121827 0.0127724 0.0136573 0.0142962 0.0127724 0.0133625 0.0142962 0.0149345 0.0133625 0.0139523 0.0149345 0.0155718 0.0139523 0.0145415 0.0155718 0.0162077 0.0145415 0.0151297 0.0162077 0.0168418 0.0151297 0.0157166 0.0168418 0.0174738 0.0157166 0.016302 0.0174738 0.0181036 0.016302 0.0168856 0.0181036 0.018731 0.0168856 0.0174671 0.018731 0.0193558 0.0174671 0.0180466 0.0193558 0.0199779 0.0180466 0.0186237 0.0199779 0.0205972 0.0186237 0.0191986 0.0205972 0.0212136 0.0191986 0.0197711 0.0212136 0.0218273 0.0197711 0.0203411 0.0218273 0.0224381 0.0203411 0.0209087 0.0224381 0.023046 0.0209087 0.0214738 0.023046 0.0236512 0.0214738 0.0220366 0.0236512 0.0242537 0.0220366 0.022597 0.0242537 0.0248536 0.022597 0.0231551 0.0248536 0.0254508 0.0231551 0.0237109 0.0254508 0.0260456 0.0237109 0.0242646 0.0260456 0.026638 0.0242646 0.0248161 0.026638 0.0272282 0.0248161 0.0253657 0.0272282 0.0278161 0.0253657 0.0259133 0.0278161 0.028402 0.0259133 0.0264591 0.028402 0.0289859 0.0264591 0.0270031 0.0289859 0.029568 0.0270031 0.0275455 0.029568 0.0301483 0.0275455 0.0280863 0.0301483 0.0307269 0.0280863 0.0286256 0.0307269 0.031304 0.0286256 0.0291636 0.031304 0.0318796 0.0291636 0.0297003 0.0318796 0.0324539 0.0297003 0.0302357 0.0324539 0.0330269 0.0302357 0.03077 0.0330269 0.0335986 0.03077 0.0313032 0.0335986 0.0341693 0.0313032 0.0318354 0.0341693 0.0347389 0.0318354 0.0323666 0.0347389 0.0353074 0.0323666 0.032897 0.0353074 0.0358751 0.032897 0.0334265 0.0358751 0.0364418 0.0334265 0.0339552 0.0364418 0.0370077 0.0339552 0.0344831 0.0370077 0.0375728 0.0344831 0.0350103 0.0375728 0.0381371 0.0350103 0.0355368 0.0381371 0.0387006 0.0355368 0.0360626 0.0387006 0.0392633 0.0360626 0.0365877 0.0392633 0.0398254 0.0365877 0.0371122 0.0398254 0.0403867 0.0371122 0.037636 0.0403867 0.0409472 0.037636 0.0381591 0.0409472 0.041507 0.0381591 0.0386815 0.041507 0.0420659 0.0386815 0.0392033 0.0420659 0.0426241 0.0392033 0.0397242 0.0426241 0.0431814 0.0397242 0.0402444 0.0431814 0.0437378 0.0402444 0.0407638 0.0437378 0.0442933 0.0407638 0.0412823 0.0442933 0.0448477 0.0412823 0.0417999 0.0448477 0.0454011 0.0417999 0.0423164 0.0454011 0.0459533 0.0423164 0.0428319 0.0459533 0.0465042 0.0428319 0.0433463 0.0465042 0.0470538 0.0433463 0.0438594 0.0470538 0.0476019 0.0438594 0.0443712 0.0476019 0.0481485 0.0443712 0.0448815 0.0481485 0.0486934 0.0448815 0.0453902 0.0486934 0.0492365 0.0453902 0.0458973 0.0492365 0.0497777 0.0458973 0.0464026 0.0497777 0.0503167 0.0464026 0.046906 0.0503167 0.0508535 0.046906 0.0474072 0.0508535 0.0513879 0.0474072 0.0479063 0.0513879 0.0519198 0.0479063 0.0484029 0.0519198 0.0524488 0.0484029 0.048897 0.0524488 0.052975 0.048897 0.0493884 0.052975 0.053498 0.0493884 0.0498768 0.053498 0.0540176 0.0498768 0.0503622 0.0540176 0.0545338 0.0503622 0.0508442 0.0545338 0.0550461 0.0508442 0.0513227 0.0550461 0.0555545 0.0513227 0.0517976 0.0555545 0.0560586 0.0517976 0.0522685 0.0560586 0.0565583 0.0522685 0.0527352 0.0565583 0.0570532 0.0527352 0.0531976 0.0570532 0.0575432 0.0531976 0.0536553 0.0575432 0.058028 0.0536553 0.0541083 0.058028 0.0585073 0.0541083 0.0545561 0.0585073 0.0589808 0.0545561 0.0549986 0.0589808 0.0594483 0.0549986 0.0554355 0.0594483 0.0599096 0.0554355 0.0558665 0.0599096 0.0603642 0.0558665 0.0562915 0.0603642 0.0608121 0.0562915 0.0567102 0.0608121 0.0612529 0.0567102 0.0571223 0.0612529 0.0616863 0.0571223 0.0575276 0.0616863 0.062112 0.0575276 0.0579258 0.062112 0.06253 0.0579258 0.0583167 0.06253 0.0629397 0.0583167 0.0587001 0.0629397 0.0633411 0.0587001 0.0590757 0.0633411 0.0637339 0.0590757 0.0594434 0.0637339 0.0641179 0.0594434 0.0598029 0.0641179 0.0644928 0.0598029 0.060154 0.0644928 0.0648584 0.060154 0.0604966 0.0648584 0.0652147 0.0604966 0.0608305 0.0652147 0.0655613 0.0608305 0.0611554 0.0655613 0.0658982 0.0611554 0.0614714 0.0658982 0.0662252 0.0614714 0.0617782 0.0662252 0.0665422 0.0617782 0.0620758 0.0665422 0.0668491 0.0620758 0.0623641 0.0668491 0.0671458 0.0623641 0.0626429 0.0671458 0.0674322 0.0626429 0.0629122 0.0674322 0.0677084 0.0629122 0.0631721 0.0677084 0.0679743 0.0631721 0.0634224 0.0679743 0.0682299 0.0634224 0.0636632 0.0682299 0.0684752 0.0636632 0.0638945 0.0684752 0.0687103 0.0638945 0.0641163 0.0687103 0.0689353 0.0641163 0.0643288 0.0689353 0.0691502 0.0643288 0.0645319 0.0691502 0.0693551 0.0645319 0.0647258 0.0693551 0.0695502 0.0647258 0.0649106 0.0695502 0.0697357 0.0649106 0.0650864 0.0697357 0.0699116 0.0650864 0.0652534 0.0699116 0.0700782 0.0652534 0.0654117 0.0700782 0.0702357 0.0654117 0.0655616 0.0702357 0.0703842 0.0655616 0.0657031 0.0703842 0.070524 0.0657031 0.0658365 0.070524 0.0706554 0.0658365 0.065962 0.0706554 0.0707785 0.065962 0.0660798 0.0707785 0.0708936 0.0660798 0.0661902 0.0708936 0.0710009 0.0661902 0.0662933 0.0710009 0.0711009 0.0662933 0.0663895 0.0711009 0.0711936 0.0663895 0.066479 0.0711936 0.0712793 0.066479 0.0665619 0.0712793 0.0713584 0.0665619 0.0666386 0.0713584 0.0714311 0.0666386 0.0667093 0.0714311 0.0714977 0.0667093 0.0667743 0.0714977 0.0715585 0.0667743 0.0668338 0.0715585 0.0716137 0.0668338 0.066888 0.0716137 0.0716636 0.066888 0.0669373 0.0716636 0.0717085 0.0669373 0.0669818 0.0717085 0.0717485 0.0669818 0.0670219 0.0717485 0.0717841 0.0670219 0.0670576 0.0717841 0.0718155 0.0670576 0.0670894 0.0718155 0.0718428 0.0670894 0.0671174 0.0718428 0.0718664 0.0671174 0.0671419 0.0718664 0.0718865 0.0671419 0.067163 0.0718865 0.0719034 0.067163 0.0671811 0.0719034 0.0719173 0.0671811 0.0671963 0.0719173 0.0719285 0.0671963 0.067209 0.0719285 0.0719372 0.067209 0.0672193 0.0719372 0.0719436 0.0672193 0.0672274 0.0719436 0.0719482 0.0672274 0.0672337 0.0719482 0.071951 0.0672337 0.0672383 0.071951 0.0719525 0.0672383 0.0672416 0.0719525 0.0719529 0.0672416 0.0672436 0.0719529 0.0719524 0.0672436 0.0672448 0.0719524 0.0719515 0.0672448 0.0672452 0.0719515 0.0719503 0.0672452 0.0672453 0.0719503 0.0719491 0.0672453 0.0672451 0.0719491 0.0719483 0.0672451 0.0672448 0.0719483 0.0719479 0.0672448 0.0672447 0.0719479 0.0719478 0.0672447 0.0672446 0 0.000198967 0 0.000207946 0.000198967 0.000453304 0.000207946 0.000463634 0.000453304 0.000730725 0.000463634 0.000749334 0.000730725 0.00103433 0.000749334 0.00105536 0.00103433 0.00136566 0.00105536 0.00138082 0.00136566 0.00172439 0.00138082 0.00172578 0.00172439 0.00210917 0.00172578 0.0020901 0.00210917 0.00251822 0.0020901 0.00247318 0.00251822 0.00294962 0.00247318 0.00287413 0.00294962 0.00340144 0.00287413 0.00329188 0.00340144 0.00387183 0.00329188 0.00372523 0.00387183 0.00435901 0.00372523 0.00417298 0.00435901 0.00486135 0.00417298 0.0046339 0.00486135 0.00537727 0.0046339 0.00510681 0.00537727 0.00590532 0.00510681 0.00559054 0.00590532 0.00644414 0.00559054 0.00608398 0.00644414 0.00699246 0.00608398 0.00658606 0.00699246 0.00754908 0.00658606 0.00709579 0.00754908 0.00811289 0.00709579 0.00761219 0.00811289 0.00868286 0.00761219 0.00813438 0.00868286 0.00925802 0.00813438 0.00866148 0.00925802 0.00983748 0.00866148 0.00919272 0.00983748 0.0104204 0.00919272 0.00972736 0.0104204 0.011006 0.00972736 0.0102647 0.011006 0.0115937 0.0102647 0.0108041 0.0115937 0.0121827 0.0108041 0.011345 0.0121827 0.0127724 0.011345 0.0118869 0.0127724 0.0133625 0.0118869 0.0124292 0.0133625 0.0139523 0.0124292 0.0129716 0.0139523 0.0145415 0.0129716 0.0135136 0.0145415 0.0151297 0.0135136 0.014055 0.0151297 0.0157166 0.014055 0.0145954 0.0157166 0.016302 0.0145954 0.0151346 0.016302 0.0168856 0.0151346 0.0156724 0.0168856 0.0174671 0.0156724 0.0162085 0.0174671 0.0180466 0.0162085 0.0167429 0.0180466 0.0186237 0.0167429 0.0172754 0.0186237 0.0191986 0.0172754 0.017806 0.0191986 0.0197711 0.017806 0.0183345 0.0197711 0.0203411 0.0183345 0.018861 0.0203411 0.0209087 0.018861 0.0193853 0.0209087 0.0214738 0.0193853 0.0199076 0.0214738 0.0220366 0.0199076 0.0204278 0.0220366 0.022597 0.0204278 0.020946 0.022597 0.0231551 0.020946 0.0214622 0.0231551 0.0237109 0.0214622 0.0219764 0.0237109 0.0242646 0.0219764 0.0224887 0.0242646 0.0248161 0.0224887 0.0229992 0.0248161 0.0253657 0.0229992 0.0235079 0.0253657 0.0259133 0.0235079 0.024015 0.0259133 0.0264591 0.024015 0.0245205 0.0264591 0.0270031 0.0245205 0.0250244 0.0270031 0.0275455 0.0250244 0.0255269 0.0275455 0.0280863 0.0255269 0.026028 0.0280863 0.0286256 0.026028 0.0265279 0.0286256 0.0291636 0.0265279 0.0270265 0.0291636 0.0297003 0.0270265 0.027524 0.0297003 0.0302357 0.027524 0.0280204 0.0302357 0.03077 0.0280204 0.0285158 0.03077 0.0313032 0.0285158 0.0290103 0.0313032 0.0318354 0.0290103 0.0295039 0.0318354 0.0323666 0.0295039 0.0299966 0.0323666 0.032897 0.0299966 0.0304886 0.032897 0.0334265 0.0304886 0.0309799 0.0334265 0.0339552 0.0309799 0.0314704 0.0339552 0.0344831 0.0314704 0.0319603 0.0344831 0.0350103 0.0319603 0.0324496 0.0350103 0.0355368 0.0324496 0.0329382 0.0355368 0.0360626 0.0329382 0.0334263 0.0360626 0.0365877 0.0334263 0.0339138 0.0365877 0.0371122 0.0339138 0.0344007 0.0371122 0.037636 0.0344007 0.034887 0.037636 0.0381591 0.034887 0.0353728 0.0381591 0.0386815 0.0353728 0.0358579 0.0386815 0.0392033 0.0358579 0.0363424 0.0392033 0.0397242 0.0363424 0.0368263 0.0397242 0.0402444 0.0368263 0.0373095 0.0402444 0.0407638 0.0373095 0.0377919 0.0407638 0.0412823 0.0377919 0.0382736 0.0412823 0.0417999 0.0382736 0.0387545 0.0417999 0.0423164 0.0387545 0.0392345 0.0423164 0.0428319 0.0392345 0.0397135 0.0428319 0.0433463 0.0397135 0.0401915 0.0433463 0.0438594 0.0401915 0.0406683 0.0438594 0.0443712 0.0406683 0.041144 0.0443712 0.0448815 0.041144 0.0416183 0.0448815 0.0453902 0.0416183 0.0420912 0.0453902 0.0458973 0.0420912 0.0425627 0.0458973 0.0464026 0.0425627 0.0430324 0.0464026 0.046906 0.0430324 0.0435004 0.046906 0.0474072 0.0435004 0.0439665 0.0474072 0.0479063 0.0439665 0.0444306 0.0479063 0.0484029 0.0444306 0.0448925 0.0484029 0.048897 0.0448925 0.045352 0.048897 0.0493884 0.045352 0.045809 0.0493884 0.0498768 0.045809 0.0462634 0.0498768 0.0503622 0.0462634 0.0467149 0.0503622 0.0508442 0.0467149 0.0471634 0.0508442 0.0513227 0.0471634 0.0476086 0.0513227 0.0517976 0.0476086 0.0480505 0.0517976 0.0522685 0.0480505 0.0484887 0.0522685 0.0527352 0.0484887 0.0489231 0.0527352 0.0531976 0.0489231 0.0493535 0.0531976 0.0536553 0.0493535 0.0497796 0.0536553 0.0541083 0.0497796 0.0502012 0.0541083 0.0545561 0.0502012 0.0506182 0.0545561 0.0549986 0.0506182 0.0510302 0.0549986 0.0554355 0.0510302 0.0514372 0.0554355 0.0558665 0.0514372 0.0518387 0.0558665 0.0562915 0.0518387 0.0522346 0.0562915 0.0567102 0.0522346 0.0526247 0.0567102 0.0571223 0.0526247 0.0530087 0.0571223 0.0575276 0.0530087 0.0533865 0.0575276 0.0579258 0.0533865 0.0537577 0.0579258 0.0583167 0.0537577 0.0541222 0.0583167 0.0587001 0.0541222 0.0544797 0.0587001 0.0590757 0.0544797 0.0548302 0.0590757 0.0594434 0.0548302 0.0551732 0.0594434 0.0598029 0.0551732 0.0555087 0.0598029 0.060154 0.0555087 0.0558366 0.060154 0.0604966 0.0558366 0.0561565 0.0604966 0.0608305 0.0561565 0.0564684 0.0608305 0.0611554 0.0564684 0.056772 0.0611554 0.0614714 0.056772 0.0570674 0.0614714 0.0617782 0.0570674 0.0573543 0.0617782 0.0620758 0.0573543 0.0576327 0.0620758 0.0623641 0.0576327 0.0579025 0.0623641 0.0626429 0.0579025 0.0581636 0.0626429 0.0629122 0.0581636 0.0584159 0.0629122 0.0631721 0.0584159 0.0586595 0.0631721 0.0634224 0.0586595 0.0588942 0.0634224 0.0636632 0.0588942 0.0591202 0.0636632 0.0638945 0.0591202 0.0593373 0.0638945 0.0641163 0.0593373 0.0595458 0.0641163 0.0643288 0.0595458 0.0597455 0.0643288 0.0645319 0.0597455 0.0599366 0.0645319 0.0647258 0.0599366 0.0601192 0.0647258 0.0649106 0.0601192 0.0602933 0.0649106 0.0650864 0.0602933 0.0604592 0.0650864 0.0652534 0.0604592 0.0606168 0.0652534 0.0654117 0.0606168 0.0607664 0.0654117 0.0655616 0.0607664 0.0609081 0.0655616 0.0657031 0.0609081 0.0610421 0.0657031 0.0658365 0.0610421 0.0611686 0.0658365 0.065962 0.0611686 0.0612877 0.065962 0.0660798 0.0612877 0.0613997 0.0660798 0.0661902 0.0613997 0.0615048 0.0661902 0.0662933 0.0615048 0.0616031 0.0662933 0.0663895 0.0616031 0.061695 0.0663895 0.066479 0.061695 0.0617805 0.066479 0.0665619 0.0617805 0.06186 0.0665619 0.0666386 0.06186 0.0619337 0.0666386 0.0667093 0.0619337 0.0620018 0.0667093 0.0667743 0.0620018 0.0620645 0.0667743 0.0668338 0.0620645 0.0621221 0.0668338 0.066888 0.0621221 0.0621748 0.066888 0.0669373 0.0621748 0.0622228 0.0669373 0.0669818 0.0622228 0.0622664 0.0669818 0.0670219 0.0622664 0.0623058 0.0670219 0.0670576 0.0623058 0.0623412 0.0670576 0.0670894 0.0623412 0.0623728 0.0670894 0.0671174 0.0623728 0.0624008 0.0671174 0.0671419 0.0624008 0.0624255 0.0671419 0.067163 0.0624255 0.0624471 0.067163 0.0671811 0.0624471 0.0624659 0.0671811 0.0671963 0.0624659 0.0624819 0.0671963 0.067209 0.0624819 0.0624954 0.067209 0.0672193 0.0624954 0.0625067 0.0672193 0.0672274 0.0625067 0.0625159 0.0672274 0.0672337 0.0625159 0.0625234 0.0672337 0.0672383 0.0625234 0.0625291 0.0672383 0.0672416 0.0625291 0.0625335 0.0672416 0.0672436 0.0625335 0.0625366 0.0672436 0.0672448 0.0625366 0.0625388 0.0672448 0.0672452 0.0625388 0.0625401 0.0672452 0.0672453 0.0625401 0.0625409 0.0672453 0.0672451 0.0625409 0.0625412 0.0672451 0.0672448 0.0625412 0.0625413 0.0672448 0.0672447 0.0625413 0.0625414 0.0672447 0.0672446 0.0625414 0.0625415 0 0.000207946 0 0.000205915 0.000207946 0.000463634 0.000205915 0.000455255 0.000463634 0.000749334 0.000455255 0.000733902 0.000749334 0.00105536 0.000733902 0.00103298 0.00105536 0.00138082 0.00103298 0.00134826 0.00138082 0.00172578 0.00134826 0.00167853 0.00172578 0.0020901 0.00167853 0.00202343 0.0020901 0.00247318 0.00202343 0.0023827 0.00247318 0.00287413 0.0023827 0.00275596 0.00287413 0.00329188 0.00275596 0.00314265 0.00329188 0.00372523 0.00314265 0.00354209 0.00372523 0.00417298 0.00354209 0.00395351 0.00417298 0.0046339 0.00395351 0.00437606 0.0046339 0.00510681 0.00437606 0.00480889 0.00510681 0.00559054 0.00480889 0.00525112 0.00559054 0.00608398 0.00525112 0.00570187 0.00608398 0.00658606 0.00570187 0.00616028 0.00658606 0.00709579 0.00616028 0.00662552 0.00709579 0.00761219 0.00662552 0.00709679 0.00761219 0.00813438 0.00709679 0.00757332 0.00813438 0.00866148 0.00757332 0.00805437 0.00866148 0.00919272 0.00805437 0.00853925 0.00919272 0.00972736 0.00853925 0.00902731 0.00972736 0.0102647 0.00902731 0.00951795 0.0102647 0.0108041 0.00951795 0.0100106 0.0108041 0.011345 0.0100106 0.0105047 0.011345 0.0118869 0.0105047 0.0109999 0.0118869 0.0124292 0.0109999 0.0114956 0.0124292 0.0129716 0.0114956 0.0119915 0.0129716 0.0135136 0.0119915 0.0124873 0.0135136 0.014055 0.0124873 0.0129825 0.014055 0.0145954 0.0129825 0.0134771 0.0145954 0.0151346 0.0134771 0.0139707 0.0151346 0.0156724 0.0139707 0.0144631 0.0156724 0.0162085 0.0144631 0.0149542 0.0162085 0.0167429 0.0149542 0.0154439 0.0167429 0.0172754 0.0154439 0.0159319 0.0172754 0.017806 0.0159319 0.0164183 0.017806 0.0183345 0.0164183 0.016903 0.0183345 0.018861 0.016903 0.017386 0.018861 0.0193853 0.017386 0.0178671 0.0193853 0.0199076 0.0178671 0.0183465 0.0199076 0.0204278 0.0183465 0.0188241 0.0204278 0.020946 0.0188241 0.0193 0.020946 0.0214622 0.0193 0.0197741 0.0214622 0.0219764 0.0197741 0.0202466 0.0219764 0.0224887 0.0202466 0.0207174 0.0224887 0.0229992 0.0207174 0.0211867 0.0229992 0.0235079 0.0211867 0.0216544 0.0235079 0.024015 0.0216544 0.0221207 0.024015 0.0245205 0.0221207 0.0225857 0.0245205 0.0250244 0.0225857 0.0230493 0.0250244 0.0255269 0.0230493 0.0235117 0.0255269 0.026028 0.0235117 0.023973 0.026028 0.0265279 0.023973 0.0244331 0.0265279 0.0270265 0.0244331 0.0248922 0.0270265 0.027524 0.0248922 0.0253503 0.027524 0.0280204 0.0253503 0.0258076 0.0280204 0.0285158 0.0258076 0.026264 0.0285158 0.0290103 0.026264 0.0267195 0.0290103 0.0295039 0.0267195 0.0271744 0.0295039 0.0299966 0.0271744 0.0276286 0.0299966 0.0304886 0.0276286 0.0280821 0.0304886 0.0309799 0.0280821 0.028535 0.0309799 0.0314704 0.028535 0.0289873 0.0314704 0.0319603 0.0289873 0.0294391 0.0319603 0.0324496 0.0294391 0.0298904 0.0324496 0.0329382 0.0298904 0.0303412 0.0329382 0.0334263 0.0303412 0.0307915 0.0334263 0.0339138 0.0307915 0.0312413 0.0339138 0.0344007 0.0312413 0.0316907 0.0344007 0.034887 0.0316907 0.0321396 0.034887 0.0353728 0.0321396 0.032588 0.0353728 0.0358579 0.032588 0.0330359 0.0358579 0.0363424 0.0330359 0.0334833 0.0363424 0.0368263 0.0334833 0.0339301 0.0368263 0.0373095 0.0339301 0.0343764 0.0373095 0.0377919 0.0343764 0.0348221 0.0377919 0.0382736 0.0348221 0.0352671 0.0382736 0.0387545 0.0352671 0.0357114 0.0387545 0.0392345 0.0357114 0.0361549 0.0392345 0.0397135 0.0361549 0.0365976 0.0397135 0.0401915 0.0365976 0.0370394 0.0401915 0.0406683 0.0370394 0.0374803 0.0406683 0.041144 0.0374803 0.0379201 0.041144 0.0416183 0.0379201 0.0383587 0.0416183 0.0420912 0.0383587 0.0387961 0.0420912 0.0425627 0.0387961 0.0392321 0.0425627 0.0430324 0.0392321 0.0396667 0.0430324 0.0435004 0.0396667 0.0400997 0.0435004 0.0439665 0.0400997 0.0405309 0.0439665 0.0444306 0.0405309 0.0409604 0.0444306 0.0448925 0.0409604 0.0413879 0.0448925 0.045352 0.0413879 0.0418133 0.045352 0.045809 0.0418133 0.0422364 0.045809 0.0462634 0.0422364 0.0426571 0.0462634 0.0467149 0.0426571 0.0430752 0.0467149 0.0471634 0.0430752 0.0434906 0.0471634 0.0476086 0.0434906 0.043903 0.0476086 0.0480505 0.043903 0.0443124 0.0480505 0.0484887 0.0443124 0.0447184 0.0484887 0.0489231 0.0447184 0.045121 0.0489231 0.0493535 0.045121 0.0455199 0.0493535 0.0497796 0.0455199 0.045915 0.0497796 0.0502012 0.045915 0.0463059 0.0502012 0.0506182 0.0463059 0.0466926 0.0506182 0.0510302 0.0466926 0.0470748 0.0510302 0.0514372 0.0470748 0.0474522 0.0514372 0.0518387 0.0474522 0.0478248 0.0518387 0.0522346 0.0478248 0.0481922 0.0522346 0.0526247 0.0481922 0.0485543 0.0526247 0.0530087 0.0485543 0.0489108 0.0530087 0.0533865 0.0489108 0.0492616 0.0533865 0.0537577 0.0492616 0.0496063 0.0537577 0.0541222 0.0496063 0.049945 0.0541222 0.0544797 0.049945 0.0502772 0.0544797 0.0548302 0.0502772 0.0506029 0.0548302 0.0551732 0.0506029 0.0509218 0.0551732 0.0555087 0.0509218 0.0512338 0.0555087 0.0558366 0.0512338 0.0515387 0.0558366 0.0561565 0.0515387 0.0518363 0.0561565 0.0564684 0.0518363 0.0521266 0.0564684 0.056772 0.0521266 0.0524093 0.056772 0.0570674 0.0524093 0.0526844 0.0570674 0.0573543 0.0526844 0.0529517 0.0573543 0.0576327 0.0529517 0.0532111 0.0576327 0.0579025 0.0532111 0.0534626 0.0579025 0.0581636 0.0534626 0.053706 0.0581636 0.0584159 0.053706 0.0539414 0.0584159 0.0586595 0.0539414 0.0541687 0.0586595 0.0588942 0.0541687 0.0543879 0.0588942 0.0591202 0.0543879 0.054599 0.0591202 0.0593373 0.054599 0.0548019 0.0593373 0.0595458 0.0548019 0.0549968 0.0595458 0.0597455 0.0549968 0.0551837 0.0597455 0.0599366 0.0551837 0.0553625 0.0599366 0.0601192