# vtk DataFile Version 3.0
#This file was generated by the deal.II library on 2021/2/9 at 23:20:21
ASCII
DATASET UNSTRUCTURED_GRID

POINTS 43200 double
0 -0.5 0
0.0166667 -0.5 0
0 -0.483333 0
0.0166667 -0.483333 0
0.0166667 -0.5 0
0.0333333 -0.5 0
0.0166667 -0.483333 0
0.0333333 -0.483333 0
0.0333333 -0.5 0
0.05 -0.5 0
0.0333333 -0.483333 0
0.05 -0.483333 0
0.05 -0.5 0
0.0666667 -0.5 0
0.05 -0.483333 0
0.0666667 -0.483333 0
0.0666667 -0.5 0
0.0833333 -0.5 0
0.0666667 -0.483333 0
0.0833333 -0.483333 0
0.0833333 -0.5 0
0.1 -0.5 0
0.0833333 -0.483333 0
0.1 -0.483333 0
0.1 -0.5 0
0.116667 -0.5 0
0.1 -0.483333 0
0.116667 -0.483333 0
0.116667 -0.5 0
0.133333 -0.5 0
0.116667 -0.483333 0
0.133333 -0.483333 0
0.133333 -0.5 0
0.15 -0.5 0
0.133333 -0.483333 0
0.15 -0.483333 0
0.15 -0.5 0
0.166667 -0.5 0
0.15 -0.483333 0
0.166667 -0.483333 0
0.166667 -0.5 0
0.183333 -0.5 0
0.166667 -0.483333 0
0.183333 -0.483333 0
0.183333 -0.5 0
0.2 -0.5 0
0.183333 -0.483333 0
0.2 -0.483333 0
0.2 -0.5 0
0.216667 -0.5 0
0.2 -0.483333 0
0.216667 -0.483333 0
0.216667 -0.5 0
0.233333 -0.5 0
0.216667 -0.483333 0
0.233333 -0.483333 0
0.233333 -0.5 0
0.25 -0.5 0
0.233333 -0.483333 0
0.25 -0.483333 0
0.25 -0.5 0
0.266667 -0.5 0
0.25 -0.483333 0
0.266667 -0.483333 0
0.266667 -0.5 0
0.283333 -0.5 0
0.266667 -0.483333 0
0.283333 -0.483333 0
0.283333 -0.5 0
0.3 -0.5 0
0.283333 -0.483333 0
0.3 -0.483333 0
0.3 -0.5 0
0.316667 -0.5 0
0.3 -0.483333 0
0.316667 -0.483333 0
0.316667 -0.5 0
0.333333 -0.5 0
0.316667 -0.483333 0
0.333333 -0.483333 0
0.333333 -0.5 0
0.35 -0.5 0
0.333333 -0.483333 0
0.35 -0.483333 0
0.35 -0.5 0
0.366667 -0.5 0
0.35 -0.483333 0
0.366667 -0.483333 0
0.366667 -0.5 0
0.383333 -0.5 0
0.366667 -0.483333 0
0.383333 -0.483333 0
0.383333 -0.5 0
0.4 -0.5 0
0.383333 -0.483333 0
0.4 -0.483333 0
0.4 -0.5 0
0.416667 -0.5 0
0.4 -0.483333 0
0.416667 -0.483333 0
0.416667 -0.5 0
0.433333 -0.5 0
0.416667 -0.483333 0
0.433333 -0.483333 0
0.433333 -0.5 0
0.45 -0.5 0
0.433333 -0.483333 0
0.45 -0.483333 0
0.45 -0.5 0
0.466667 -0.5 0
0.45 -0.483333 0
0.466667 -0.483333 0
0.466667 -0.5 0
0.483333 -0.5 0
0.466667 -0.483333 0
0.483333 -0.483333 0
0.483333 -0.5 0
0.5 -0.5 0
0.483333 -0.483333 0
0.5 -0.483333 0
0.5 -0.5 0
0.516667 -0.5 0
0.5 -0.483333 0
0.516667 -0.483333 0
0.516667 -0.5 0
0.533333 -0.5 0
0.516667 -0.483333 0
0.533333 -0.483333 0
0.533333 -0.5 0
0.55 -0.5 0
0.533333 -0.483333 0
0.55 -0.483333 0
0.55 -0.5 0
0.566667 -0.5 0
0.55 -0.483333 0
0.566667 -0.483333 0
0.566667 -0.5 0
0.583333 -0.5 0
0.566667 -0.483333 0
0.583333 -0.483333 0
0.583333 -0.5 0
0.6 -0.5 0
0.583333 -0.483333 0
0.6 -0.483333 0
0.6 -0.5 0
0.616667 -0.5 0
0.6 -0.483333 0
0.616667 -0.483333 0
0.616667 -0.5 0
0.633333 -0.5 0
0.616667 -0.483333 0
0.633333 -0.483333 0
0.633333 -0.5 0
0.65 -0.5 0
0.633333 -0.483333 0
0.65 -0.483333 0
0.65 -0.5 0
0.666667 -0.5 0
0.65 -0.483333 0
0.666667 -0.483333 0
0.666667 -0.5 0
0.683333 -0.5 0
0.666667 -0.483333 0
0.683333 -0.483333 0
0.683333 -0.5 0
0.7 -0.5 0
0.683333 -0.483333 0
0.7 -0.483333 0
0.7 -0.5 0
0.716667 -0.5 0
0.7 -0.483333 0
0.716667 -0.483333 0
0.716667 -0.5 0
0.733333 -0.5 0
0.716667 -0.483333 0
0.733333 -0.483333 0
0.733333 -0.5 0
0.75 -0.5 0
0.733333 -0.483333 0
0.75 -0.483333 0
0.75 -0.5 0
0.766667 -0.5 0
0.75 -0.483333 0
0.766667 -0.483333 0
0.766667 -0.5 0
0.783333 -0.5 0
0.766667 -0.483333 0
0.783333 -0.483333 0
0.783333 -0.5 0
0.8 -0.5 0
0.783333 -0.483333 0
0.8 -0.483333 0
0.8 -0.5 0
0.816667 -0.5 0
0.8 -0.483333 0
0.816667 -0.483333 0
0.816667 -0.5 0
0.833333 -0.5 0
0.816667 -0.483333 0
0.833333 -0.483333 0
0.833333 -0.5 0
0.85 -0.5 0
0.833333 -0.483333 0
0.85 -0.483333 0
0.85 -0.5 0
0.866667 -0.5 0
0.85 -0.483333 0
0.866667 -0.483333 0
0.866667 -0.5 0
0.883333 -0.5 0
0.866667 -0.483333 0
0.883333 -0.483333 0
0.883333 -0.5 0
0.9 -0.5 0
0.883333 -0.483333 0
0.9 -0.483333 0
0.9 -0.5 0
0.916667 -0.5 0
0.9 -0.483333 0
0.916667 -0.483333 0
0.916667 -0.5 0
0.933333 -0.5 0
0.916667 -0.483333 0
0.933333 -0.483333 0
0.933333 -0.5 0
0.95 -0.5 0
0.933333 -0.483333 0
0.95 -0.483333 0
0.95 -0.5 0
0.966667 -0.5 0
0.95 -0.483333 0
0.966667 -0.483333 0
0.966667 -0.5 0
0.983333 -0.5 0
0.966667 -0.483333 0
0.983333 -0.483333 0
0.983333 -0.5 0
1 -0.5 0
0.983333 -0.483333 0
1 -0.483333 0
1 -0.5 0
1.01667 -0.5 0
1 -0.483333 0
1.01667 -0.483333 0
1.01667 -0.5 0
1.03333 -0.5 0
1.01667 -0.483333 0
1.03333 -0.483333 0
1.03333 -0.5 0
1.05 -0.5 0
1.03333 -0.483333 0
1.05 -0.483333 0
1.05 -0.5 0
1.06667 -0.5 0
1.05 -0.483333 0
1.06667 -0.483333 0
1.06667 -0.5 0
1.08333 -0.5 0
1.06667 -0.483333 0
1.08333 -0.483333 0
1.08333 -0.5 0
1.1 -0.5 0
1.08333 -0.483333 0
1.1 -0.483333 0
1.1 -0.5 0
1.11667 -0.5 0
1.1 -0.483333 0
1.11667 -0.483333 0
1.11667 -0.5 0
1.13333 -0.5 0
1.11667 -0.483333 0
1.13333 -0.483333 0
1.13333 -0.5 0
1.15 -0.5 0
1.13333 -0.483333 0
1.15 -0.483333 0
1.15 -0.5 0
1.16667 -0.5 0
1.15 -0.483333 0
1.16667 -0.483333 0
1.16667 -0.5 0
1.18333 -0.5 0
1.16667 -0.483333 0
1.18333 -0.483333 0
1.18333 -0.5 0
1.2 -0.5 0
1.18333 -0.483333 0
1.2 -0.483333 0
1.2 -0.5 0
1.21667 -0.5 0
1.2 -0.483333 0
1.21667 -0.483333 0
1.21667 -0.5 0
1.23333 -0.5 0
1.21667 -0.483333 0
1.23333 -0.483333 0
1.23333 -0.5 0
1.25 -0.5 0
1.23333 -0.483333 0
1.25 -0.483333 0
1.25 -0.5 0
1.26667 -0.5 0
1.25 -0.483333 0
1.26667 -0.483333 0
1.26667 -0.5 0
1.28333 -0.5 0
1.26667 -0.483333 0
1.28333 -0.483333 0
1.28333 -0.5 0
1.3 -0.5 0
1.28333 -0.483333 0
1.3 -0.483333 0
1.3 -0.5 0
1.31667 -0.5 0
1.3 -0.483333 0
1.31667 -0.483333 0
1.31667 -0.5 0
1.33333 -0.5 0
1.31667 -0.483333 0
1.33333 -0.483333 0
1.33333 -0.5 0
1.35 -0.5 0
1.33333 -0.483333 0
1.35 -0.483333 0
1.35 -0.5 0
1.36667 -0.5 0
1.35 -0.483333 0
1.36667 -0.483333 0
1.36667 -0.5 0
1.38333 -0.5 0
1.36667 -0.483333 0
1.38333 -0.483333 0
1.38333 -0.5 0
1.4 -0.5 0
1.38333 -0.483333 0
1.4 -0.483333 0
1.4 -0.5 0
1.41667 -0.5 0
1.4 -0.483333 0
1.41667 -0.483333 0
1.41667 -0.5 0
1.43333 -0.5 0
1.41667 -0.483333 0
1.43333 -0.483333 0
1.43333 -0.5 0
1.45 -0.5 0
1.43333 -0.483333 0
1.45 -0.483333 0
1.45 -0.5 0
1.46667 -0.5 0
1.45 -0.483333 0
1.46667 -0.483333 0
1.46667 -0.5 0
1.48333 -0.5 0
1.46667 -0.483333 0
1.48333 -0.483333 0
1.48333 -0.5 0
1.5 -0.5 0
1.48333 -0.483333 0
1.5 -0.483333 0
1.5 -0.5 0
1.51667 -0.5 0
1.5 -0.483333 0
1.51667 -0.483333 0
1.51667 -0.5 0
1.53333 -0.5 0
1.51667 -0.483333 0
1.53333 -0.483333 0
1.53333 -0.5 0
1.55 -0.5 0
1.53333 -0.483333 0
1.55 -0.483333 0
1.55 -0.5 0
1.56667 -0.5 0
1.55 -0.483333 0
1.56667 -0.483333 0
1.56667 -0.5 0
1.58333 -0.5 0
1.56667 -0.483333 0
1.58333 -0.483333 0
1.58333 -0.5 0
1.6 -0.5 0
1.58333 -0.483333 0
1.6 -0.483333 0
1.6 -0.5 0
1.61667 -0.5 0
1.6 -0.483333 0
1.61667 -0.483333 0
1.61667 -0.5 0
1.63333 -0.5 0
1.61667 -0.483333 0
1.63333 -0.483333 0
1.63333 -0.5 0
1.65 -0.5 0
1.63333 -0.483333 0
1.65 -0.483333 0
1.65 -0.5 0
1.66667 -0.5 0
1.65 -0.483333 0
1.66667 -0.483333 0
1.66667 -0.5 0
1.68333 -0.5 0
1.66667 -0.483333 0
1.68333 -0.483333 0
1.68333 -0.5 0
1.7 -0.5 0
1.68333 -0.483333 0
1.7 -0.483333 0
1.7 -0.5 0
1.71667 -0.5 0
1.7 -0.483333 0
1.71667 -0.483333 0
1.71667 -0.5 0
1.73333 -0.5 0
1.71667 -0.483333 0
1.73333 -0.483333 0
1.73333 -0.5 0
1.75 -0.5 0
1.73333 -0.483333 0
1.75 -0.483333 0
1.75 -0.5 0
1.76667 -0.5 0
1.75 -0.483333 0
1.76667 -0.483333 0
1.76667 -0.5 0
1.78333 -0.5 0
1.76667 -0.483333 0
1.78333 -0.483333 0
1.78333 -0.5 0
1.8 -0.5 0
1.78333 -0.483333 0
1.8 -0.483333 0
1.8 -0.5 0
1.81667 -0.5 0
1.8 -0.483333 0
1.81667 -0.483333 0
1.81667 -0.5 0
1.83333 -0.5 0
1.81667 -0.483333 0
1.83333 -0.483333 0
1.83333 -0.5 0
1.85 -0.5 0
1.83333 -0.483333 0
1.85 -0.483333 0
1.85 -0.5 0
1.86667 -0.5 0
1.85 -0.483333 0
1.86667 -0.483333 0
1.86667 -0.5 0
1.88333 -0.5 0
1.86667 -0.483333 0
1.88333 -0.483333 0
1.88333 -0.5 0
1.9 -0.5 0
1.88333 -0.483333 0
1.9 -0.483333 0
1.9 -0.5 0
1.91667 -0.5 0
1.9 -0.483333 0
1.91667 -0.483333 0
1.91667 -0.5 0
1.93333 -0.5 0
1.91667 -0.483333 0
1.93333 -0.483333 0
1.93333 -0.5 0
1.95 -0.5 0
1.93333 -0.483333 0
1.95 -0.483333 0
1.95 -0.5 0
1.96667 -0.5 0
1.95 -0.483333 0
1.96667 -0.483333 0
1.96667 -0.5 0
1.98333 -0.5 0
1.96667 -0.483333 0
1.98333 -0.483333 0
1.98333 -0.5 0
2 -0.5 0
1.98333 -0.483333 0
2 -0.483333 0
2 -0.5 0
2.01667 -0.5 0
2 -0.483333 0
2.01667 -0.483333 0
2.01667 -0.5 0
2.03333 -0.5 0
2.01667 -0.483333 0
2.03333 -0.483333 0
2.03333 -0.5 0
2.05 -0.5 0
2.03333 -0.483333 0
2.05 -0.483333 0
2.05 -0.5 0
2.06667 -0.5 0
2.05 -0.483333 0
2.06667 -0.483333 0
2.06667 -0.5 0
2.08333 -0.5 0
2.06667 -0.483333 0
2.08333 -0.483333 0
2.08333 -0.5 0
2.1 -0.5 0
2.08333 -0.483333 0
2.1 -0.483333 0
2.1 -0.5 0
2.11667 -0.5 0
2.1 -0.483333 0
2.11667 -0.483333 0
2.11667 -0.5 0
2.13333 -0.5 0
2.11667 -0.483333 0
2.13333 -0.483333 0
2.13333 -0.5 0
2.15 -0.5 0
2.13333 -0.483333 0
2.15 -0.483333 0
2.15 -0.5 0
2.16667 -0.5 0
2.15 -0.483333 0
2.16667 -0.483333 0
2.16667 -0.5 0
2.18333 -0.5 0
2.16667 -0.483333 0
2.18333 -0.483333 0
2.18333 -0.5 0
2.2 -0.5 0
2.18333 -0.483333 0
2.2 -0.483333 0
2.2 -0.5 0
2.21667 -0.5 0
2.2 -0.483333 0
2.21667 -0.483333 0
2.21667 -0.5 0
2.23333 -0.5 0
2.21667 -0.483333 0
2.23333 -0.483333 0
2.23333 -0.5 0
2.25 -0.5 0
2.23333 -0.483333 0
2.25 -0.483333 0
2.25 -0.5 0
2.26667 -0.5 0
2.25 -0.483333 0
2.26667 -0.483333 0
2.26667 -0.5 0
2.28333 -0.5 0
2.26667 -0.483333 0
2.28333 -0.483333 0
2.28333 -0.5 0
2.3 -0.5 0
2.28333 -0.483333 0
2.3 -0.483333 0
2.3 -0.5 0
2.31667 -0.5 0
2.3 -0.483333 0
2.31667 -0.483333 0
2.31667 -0.5 0
2.33333 -0.5 0
2.31667 -0.483333 0
2.33333 -0.483333 0
2.33333 -0.5 0
2.35 -0.5 0
2.33333 -0.483333 0
2.35 -0.483333 0
2.35 -0.5 0
2.36667 -0.5 0
2.35 -0.483333 0
2.36667 -0.483333 0
2.36667 -0.5 0
2.38333 -0.5 0
2.36667 -0.483333 0
2.38333 -0.483333 0
2.38333 -0.5 0
2.4 -0.5 0
2.38333 -0.483333 0
2.4 -0.483333 0
2.4 -0.5 0
2.41667 -0.5 0
2.4 -0.483333 0
2.41667 -0.483333 0
2.41667 -0.5 0
2.43333 -0.5 0
2.41667 -0.483333 0
2.43333 -0.483333 0
2.43333 -0.5 0
2.45 -0.5 0
2.43333 -0.483333 0
2.45 -0.483333 0
2.45 -0.5 0
2.46667 -0.5 0
2.45 -0.483333 0
2.46667 -0.483333 0
2.46667 -0.5 0
[...]
POINT_DATA 43200
SCALARS x1_displacement double 1
LOOKUP_TABLE default
0 -0.00395719 0 -0.00183846 -0.00395719 -0.00664773 -0.00183846 -0.00442381 -0.00664773 -0.00880122 -0.00442381 -0.00676482 -0.00880122 -0.0107311 -0.00676482 -0.0088853 -0.0107311 -0.0124738 -0.0088853 -0.0108327 -0.0124738 -0.0139609 -0.0108327 -0.0125984 -0.0139609 -0.0143402 -0.0125984 -0.013918 -0.0143402 -0.0141313 -0.013918 -0.0140909 -0.0141313 -0.0138575 -0.0140909 -0.0138931 -0.0138575 -0.0135025 -0.0138931 -0.0135823 -0.0135025 -0.0130559 -0.0135823 -0.0131806 -0.0130559 -0.0125286 -0.0131806 -0.0127003 -0.0125286 -0.0119301 -0.0127003 -0.0121537 -0.0119301 -0.0112704 -0.0121537 -0.0115503 -0.0112704 -0.0105585 -0.0115503 -0.0108987 -0.0105585 -0.00980283 -0.0108987 -0.0102068 -0.00980283 -0.00901101 -0.0102068 -0.00948154 -0.00901101 -0.00819001 -0.00948154 -0.00872929 -0.00819001 -0.00734622 -0.00872929 -0.00795583 -0.00734622 -0.00648545 -0.00795583 -0.00716644 -0.00648545 -0.00561302 -0.00716644 -0.0063659 -0.00561302 -0.0047337 -0.0063659 -0.00555856 -0.0047337 -0.00385182 -0.00555856 -0.00474831 -0.00385182 -0.00297122 -0.00474831 -0.00393867 -0.00297122 -0.00209531 -0.00393867 -0.00313275 -0.00209531 -0.0012271 -0.00313275 -0.00233331 -0.0012271 -0.000369235 -0.00233331 -0.0015428 -0.000369235 0.000476004 -0.0015428 -0.000763348 0.000476004 0.00130663 -0.000763348 3.18803e-06 0.00130663 0.00212093 3.18803e-06 0.000755195 0.00212093 0.00291743 0.000755195 0.00149128 0.00291743 0.00369488 0.00149128 0.00221024 0.00369488 0.0044522 0.00221024 0.00291105 0.0044522 0.00518847 0.00291105 0.00359284 0.00518847 0.00590291 0.00359284 0.00425487 0.00590291 0.00659489 0.00425487 0.00489651 0.00659489 0.00726386 0.00489651 0.00551727 0.00726386 0.0079094 0.00551727 0.00611674 0.0079094 0.00853119 0.00611674 0.00669461 0.00853119 0.009129 0.00669461 0.0072507 0.009129 0.00970271 0.0072507 0.00778487 0.00970271 0.0102523 0.00778487 0.0082971 0.0102523 0.0107778 0.0082971 0.00878746 0.0107778 0.0112794 0.00878746 0.00925606 0.0112794 0.0117572 0.00925606 0.00970314 0.0117572 0.0122117 0.00970314 0.010129 0.0122117 0.0126431 0.010129 0.0105339 0.0126431 0.013052 0.0105339 0.0109183 0.013052 0.0134386 0.0109183 0.0112826 0.0134386 0.0138036 0.0112826 0.0116273 0.0138036 0.0141473 0.0116273 0.0119529 0.0141473 0.0144703 0.0119529 0.0122598 0.0144703 0.014773 0.0122598 0.0125485 0.014773 0.0150559 0.0125485 0.0128196 0.0150559 0.0153193 0.0128196 0.0130736 0.0153193 0.0155637 0.0130736 0.0133108 0.0155637 0.0157892 0.0133108 0.0135319 0.0157892 0.0159964 0.0135319 0.0137374 0.0159964 0.0161855 0.0137374 0.0139279 0.0161855 0.0163573 0.0139279 0.0141042 0.0163573 0.0165126 0.0141042 0.0142676 0.0165126 0.016653 0.0142676 0.0144195 0.016653 0.016781 0.0144195 0.0145623 0.016781 0.0169007 0.0145623 0.0146991 0.0169007 0.017018 0.0146991 0.0148344 0.017018 0.0171414 0.0148344 0.0149743 0.0171414 0.0172818 0.0149743 0.0151262 0.0172818 0.0174525 0.0151262 0.0152995 0.0174525 0.0176669 0.0152995 0.0155035 0.0176669 0.0179367 0.0155035 0.0157469 0.0179367 0.0182691 0.0157469 0.0160352 0.0182691 0.0186645 0.0160352 0.0163696 0.0186645 0.0191171 0.0163696 0.0167468 0.0191171 0.0196161 0.0167468 0.0171602 0.0196161 0.020149 0.0171602 0.0176016 0.020149 0.0207035 0.0176016 0.0180633 0.0207035 0.0212699 0.0180633 0.0185386 0.0212699 0.0218409 0.0185386 0.0190224 0.0218409 0.0224119 0.0190224 0.0195112 0.0224119 0.0229801 0.0195112 0.0200021 0.0229801 0.0235436 0.0200021 0.0204934 0.0235436 0.0241014 0.0204934 0.0209834 0.0241014 0.0246528 0.0209834 0.0214708 0.0246528 0.025197 0.0214708 0.0219546 0.025197 0.0257336 0.0219546 0.0224337 0.0257336 0.0262618 0.0224337 0.0229072 0.0262618 0.0267812 0.0229072 0.0233742 0.0267812 0.027291 0.0233742 0.023834 0.027291 0.0277908 0.023834 0.0242855 0.0277908 0.0282797 0.0242855 0.0247282 0.0282797 0.0287571 0.0247282 0.0251611 0.0287571 0.0292223 0.0251611 0.0255835 0.0292223 0.0296746 0.0255835 0.0259947 0.0296746 0.0301133 0.0259947 0.0263939 0.0301133 0.0305377 0.0263939 0.0267806 0.0305377 0.0309474 0.0267806 0.0271541 0.0309474 0.0313418 0.0271541 0.0275141 0.0313418 0.0317205 0.0275141 0.0278601 0.0317205 0.0320833 0.0278601 0.0281918 0.0320833 0.0324301 0.0281918 0.0285091 0.0324301 0.0327607 0.0285091 0.0288119 0.0327607 0.0330753 0.0288119 0.0291003 0.0330753 0.0333741 0.0291003 0.0293745 0.0333741 0.0336575 0.0293745 0.0296347 0.0336575 0.033926 0.0296347 0.0298814 0.033926 0.0341801 0.0298814 0.030115 0.0341801 0.0344205 0.030115 0.0303362 0.0344205 0.034648 0.0303362 0.0305457 0.034648 0.0348635 0.0305457 0.0307442 0.0348635 0.0350681 0.0307442 0.0309327 0.0350681 0.0352627 0.0309327 0.0311119 0.0352627 0.0354485 0.0311119 0.031283 0.0354485 0.0356267 0.031283 0.0314471 0.0356267 0.0357985 0.0314471 0.0316051 0.0357985 0.0359653 0.0316051 0.0317584 0.0359653 0.0361284 0.0317584 0.031908 0.0361284 0.0362891 0.031908 0.0320552 0.0362891 0.0364489 0.0320552 0.0322013 0.0364489 0.0366093 0.0322013 0.0323476 0.0366093 0.0367716 0.0323476 0.0324953 0.0367716 0.0369375 0.0324953 0.0326458 0.0369375 0.0371082 0.0326458 0.0328004 0.0371082 0.0372855 0.0328004 0.0329604 0.0372855 0.0374707 0.0329604 0.0331272 0.0374707 0.0376654 0.0331272 0.033302 0.0376654 0.037871 0.033302 0.0334861 0.037871 0.038089 0.0334861 0.0336808 0.038089 0.0383206 0.0336808 0.0338872 0.0383206 0.0385674 0.0338872 0.0341066 0.0385674 0.0388305 0.0341066 0.0343399 0.0388305 0.039111 0.0343399 0.034588 0.039111 0.03941 0.034588 0.0348519 0.03941 0.0397283 0.0348519 0.0351322 0.0397283 0.0400665 0.0351322 0.0354294 0.0400665 0.040425 0.0354294 0.0357437 0.040425 0.040804 0.0357437 0.0360754 0.040804 0.0412034 0.0360754 0.0364241 0.0412034 0.0416227 0.0364241 0.0367895 0.0416227 0.042061 0.0367895 0.0371707 0.042061 0.0425171 0.0371707 0.0375669 0.0425171 0.0429896 0.0375669 0.0379764 0.0429896 0.0434764 0.0379764 0.0383978 0.0434764 0.0439752 0.0383978 0.038829 0.0439752 0.0444834 0.038829 0.0392677 0.0444834 0.0449981 0.0392677 0.0397116 0.0449981 0.0455162 0.0397116 0.040158 0.0455162 0.0460343 0.040158 0.0406041 0.0460343 0.0465493 0.0406041 0.0410471 0.0465493 0.0470577 0.0410471 0.0414842 0.0470577 0.0475563 0.0414842 0.0419128 0.0475563 0.0480422 0.0419128 0.0423301 0.0480422 0.0485125 0.0423301 0.0427339 0.0485125 0.0489645 0.0427339 0.0431218 0.0489645 0.0493961 0.0431218 0.0434919 0.0493961 0.0498051 0.0434919 0.0438424 0.0498051 0.0501899 0.0438424 0.0441718 0.0501899 0.0505488 0.0441718 0.0444787 0.0505488 0.0508806 0.0444787 0.0447622 0.0508806 0.0511841 0.0447622 0.0450212 0.0511841 0.0514584 0.0450212 0.045255 0.0514584 0.0517025 0.045255 0.0454629 0.0517025 0.0519156 0.0454629 0.0456444 0.0519156 0.0520968 0.0456444 0.0457992 0.0520968 0.0522452 0.0457992 0.045927 0.0522452 0.05236 0.045927 0.0460277 0.05236 0.0524399 0.0460277 0.0461013 0.0524399 0.0524837 0.0461013 0.0461482 0.0524837 0.0524895 0.0461482 0.046169 0.0524895 0.0524545 0.046169 0.0461651 0.0524545 0.0523742 0.0461651 0.0461389 0.0523742 0.0522416 0.0461389 0.0460951 0.0522416 0.0520462 0.0460951 0.0460429 0.0520462 0.0517775 0.0460429 0.0460004 0.0517775 0.0514402 0.0460004 0.0459986 0.0514402 0.0511644 0.0459986 0.0460489 0.0511644 0.0511886 0.0460489 0.0456585 0.0511886 0.0500423 0.0456585 0.0442031 0.0500423 0.0485755 0.0442031 0.0425717 0.0485755 0.0470046 0.0425717 0.0409164 0.0470046 0.0453567 0.0409164 0.0392405 0 -0.00183846 0 -0.00137163 -0.00183846 -0.00442381 -0.00137163 -0.00324732 -0.00442381 -0.00676482 -0.00324732 -0.00536834 -0.00676482 -0.0088853 -0.00536834 -0.00744464 -0.0088853 -0.0108327 -0.00744464 -0.0094236 -0.0108327 -0.0125984 -0.0094236 -0.0112924 -0.0125984 -0.013918 -0.0112924 -0.0129979 -0.013918 -0.0140909 -0.0129979 -0.014196 -0.0140909 -0.0138931 -0.014196 -0.0141911 -0.0138931 -0.0135823 -0.0141911 -0.0138868 -0.0135823 -0.0131806 -0.0138868 -0.0134974 -0.0131806 -0.0127003 -0.0134974 -0.013038 -0.0127003 -0.0121537 -0.013038 -0.012519 -0.0121537 -0.0115503 -0.012519 -0.0119504 -0.0115503 -0.0108987 -0.0119504 -0.0113398 -0.0108987 -0.0102068 -0.0113398 -0.0106942 -0.0102068 -0.00948154 -0.0106942 -0.0100196 -0.00948154 -0.00872929 -0.0100196 -0.00932163 -0.00872929 -0.00795583 -0.00932163 -0.00860537 -0.00795583 -0.00716644 -0.00860537 -0.00787542 -0.00716644 -0.0063659 -0.00787542 -0.00713597 -0.0063659 -0.00555856 -0.00713597 -0.00639085 -0.00555856 -0.00474831 -0.00639085 -0.0056435 -0.00474831 -0.00393867 -0.0056435 -0.00489702 -0.00393867 -0.00313275 -0.00489702 -0.00415417 -0.00313275 -0.00233331 -0.00415417 -0.00341742 -0.00233331 -0.0015428 -0.00341742 -0.00268894 -0.0015428 -0.000763348 -0.00268894 -0.00197062 -0.000763348 3.18803e-06 -0.00197062 -0.00126414 3.18803e-06 0.000755195 -0.00126414 -0.000570934 0.000755195 0.00149128 -0.000570934 0.000107731 0.00149128 0.00221024 0.000107731 0.000770778 0.00221024 0.00291105 0.000770778 0.00141728 0.00291105 0.00359284 0.00141728 0.00204643 0.00359284 0.00425487 0.00204643 0.00265758 0.00425487 0.00489651 0.00265758 0.00325015 0.00489651 0.00551727 0.00325015 0.0038237 0.00551727 0.00611674 0.0038237 0.00437785 0.00611674 0.00669461 0.00437785 0.00491233 0.00669461 0.0072507 0.00491233 0.00542698 0.0072507 0.00778487 0.00542698 0.00592168 0.00778487 0.0082971 0.00592168 0.00639643 0.0082971 0.00878746 0.00639643 0.00685129 0.00878746 0.00925606 0.00685129 0.00728641 0.00925606 0.00970314 0.00728641 0.00770199 0.00970314 0.010129 0.00770199 0.00809833 0.010129 0.0105339 0.00809833 0.00847577 0.0105339 0.0109183 0.00847577 0.00883468 0.0109183 0.0112826 0.00883468 0.00917553 0.0112826 0.0116273 0.00917553 0.00949878 0.0116273 0.0119529 0.00949878 0.00980493 0.0119529 0.0122598 0.00980493 0.0100945 0.0122598 0.0125485 0.0100945 0.0103681 0.0125485 0.0128196 0.0103681 0.0106262 0.0128196 0.0130736 0.0106262 0.0108694 0.0130736 0.0133108 0.0108694 0.0110983 0.0133108 0.0135319 0.0110983 0.0113135 0.0135319 0.0137374 0.0113135 0.0115156 0.0137374 0.0139279 0.0115156 0.0117053 0.0139279 0.0141042 0.0117053 0.0118833 0.0141042 0.0142676 0.0118833 0.0120506 0.0142676 0.0144195 0.0120506 0.0122082 0.0144195 0.0145623 0.0122082 0.0123573 0.0145623 0.0146991 0.0123573 0.0124998 0.0146991 0.0148344 0.0124998 0.012638 0.0148344 0.0149743 0.012638 0.0127755 0.0149743 0.0151262 0.0127755 0.0129173 0.0151262 0.0152995 0.0129173 0.0130707 0.0152995 0.0155035 0.0130707 0.0132448 0.0155035 0.0157469 0.0132448 0.013449 0.0157469 0.0160352 0.013449 0.0136902 0.0160352 0.0163696 0.0136902 0.0139707 0.0163696 0.0167468 0.0139707 0.0142874 0.0167468 0.0171602 0.0142874 0.0146336 0.0171602 0.0176016 0.0146336 0.0150023 0.0176016 0.0180633 0.0150023 0.0153873 0.0180633 0.0185386 0.0153873 0.0157844 0.0185386 0.0190224 0.0157844 0.0161907 0.0190224 0.0195112 0.0161907 0.0166042 0.0195112 0.0200021 0.0166042 0.0170232 0.0200021 0.0204934 0.0170232 0.0174462 0.0204934 0.0209834 0.0174462 0.0178717 0.0209834 0.0214708 0.0178717 0.018298 0.0214708 0.0219546 0.018298 0.0187238 0.0219546 0.0224337 0.0187238 0.0191478 0.0224337 0.0229072 0.0191478 0.0195688 0.0229072 0.0233742 0.0195688 0.0199856 0.0233742 0.023834 0.0199856 0.0203972 0.023834 0.0242855 0.0203972 0.0208026 0.0242855 0.0247282 0.0208026 0.021201 0.0247282 0.0251611 0.021201 0.0215913 0.0251611 0.0255835 0.0215913 0.0219727 0.0255835 0.0259947 0.0219727 0.0223445 0.0259947 0.0263939 0.0223445 0.0227059 0.0263939 0.0267806 0.0227059 0.0230561 0.0267806 0.0271541 0.0230561 0.0233948 0.0271541 0.0275141 0.0233948 0.0237212 0.0275141 0.0278601 0.0237212 0.0240351 0.0278601 0.0281918 0.0240351 0.0243362 0.0281918 0.0285091 0.0243362 0.0246242 0.0285091 0.0288119 0.0246242 0.024899 0.0288119 0.0291003 0.024899 0.0251608 0.0291003 0.0293745 0.0251608 0.0254096 0.0293745 0.0296347 0.0254096 0.0256456 0.0296347 0.0298814 0.0256456 0.0258693 0.0298814 0.030115 0.0258693 0.026081 0.030115 0.0303362 0.026081 0.0262812 0.0303362 0.0305457 0.0262812 0.0264707 0.0305457 0.0307442 0.0264707 0.02665 0.0307442 0.0309327 0.02665 0.02682 0.0309327 0.0311119 0.02682 0.0269814 0.0311119 0.031283 0.0269814 0.0271352 0.031283 0.0314471 0.0271352 0.0272823 0.0314471 0.0316051 0.0272823 0.0274237 0.0316051 0.0317584 0.0274237 0.0275604 0.0317584 0.031908 0.0275604 0.0276935 0.031908 0.0320552 0.0276935 0.0278241 0.0320552 0.0322013 0.0278241 0.0279533 0.0322013 0.0323476 0.0279533 0.0280822 0.0323476 0.0324953 0.0280822 0.028212 0.0324953 0.0326458 0.028212 0.0283439 0.0326458 0.0328004 0.0283439 0.028479 0.0328004 0.0329604 0.028479 0.0286185 0.0329604 0.0331272 0.0286185 0.0287636 0.0331272 0.033302 0.0287636 0.0289153 0.033302 0.0334861 0.0289153 0.0290749 0.0334861 0.0336808 0.0290749 0.0292433 0.0336808 0.0338872 0.0292433 0.0294217 0.0338872 0.0341066 0.0294217 0.029611 0.0341066 0.0343399 0.029611 0.0298122 0.0343399 0.034588 0.0298122 0.0300259 0.034588 0.0348519 0.0300259 0.030253 0.0348519 0.0351322 0.030253 0.0304941 0.0351322 0.0354294 0.0304941 0.0307495 0.0354294 0.0357437 0.0307495 0.0310195 0.0357437 0.0360754 0.0310195 0.0313042 0.0360754 0.0364241 0.0313042 0.0316035 0.0364241 0.0367895 0.0316035 0.0319168 0.0367895 0.0371707 0.0319168 0.0322437 0.0371707 0.0375669 0.0322437 0.0325832 0.0375669 0.0379764 0.0325832 0.0329341 0.0379764 0.0383978 0.0329341 0.0332949 0.0383978 0.038829 0.0332949 0.033664 0.038829 0.0392677 0.033664 0.0340394 0.0392677 0.0397116 0.0340394 0.034419 0.0397116 0.040158 0.034419 0.0348005 0.040158 0.0406041 0.0348005 0.0351815 0.0406041 0.0410471 0.0351815 0.0355595 0.0410471 0.0414842 0.0355595 0.0359321 0.0414842 0.0419128 0.0359321 0.036297 0.0419128 0.0423301 0.036297 0.0366518 0.0423301 0.0427339 0.0366518 0.0369946 0.0427339 0.0431218 0.0369946 0.0373233 0.0431218 0.0434919 0.0373233 0.0376363 0.0434919 0.0438424 0.0376363 0.0379321 0.0438424 0.0441718 0.0379321 0.0382095 0.0441718 0.0444787 0.0382095 0.0384673 0.0444787 0.0447622 0.0384673 0.0387048 0.0447622 0.0450212 0.0387048 0.0389212 0.0450212 0.045255 0.0389212 0.039116 0.045255 0.0454629 0.039116 0.039289 0.0454629 0.0456444 0.039289 0.03944 0.0456444 0.0457992 0.03944 0.0395691 0.0457992 0.045927 0.0395691 0.0396766 0.045927 0.0460277 0.0396766 0.0397632 0.0460277 0.0461013 0.0397632 0.0398299 0.0461013 0.0461482 0.0398299 0.0398785 0.0461482 0.046169 0.0398785 0.0399119 0.046169 0.0461651 0.0399119 0.0399345 0.0461651 0.0461389 0.0399345 0.0399528 0.0461389 0.0460951 0.0399528 0.0399766 0.0460951 0.0460429 0.0399766 0.0400184 0.0460429 0.0460004 0.0400184 0.0400868 0.0460004 0.0459986 0.0400868 0.0401592 0.0459986 0.0460489 0.0401592 0.0400877 0.0460489 0.0456585 0.0400877 0.0395917 0.0456585 0.0442031 0.0395917 0.0381434 0.0442031 0.0425717 0.0381434 0.0365166 0.0425717 0.0409164 0.0365166 0.0348406 0.0409164 0.0392405 0.0348406 0.0331307 0 -0.00137163 0 -0.00108806 -0.00137163 -0.00324732 -0.00108806 -0.00264016 -0.00324732 -0.00536834 -0.00264016 -0.00443603 -0.00536834 -0.00744464 -0.00443603 -0.00631751 -0.00744464 -0.0094236 -0.00631751 -0.00819034 -0.0094236 -0.0112924 -0.00819034 -0.0100217 -0.0112924 -0.0129979 -0.0100217 -0.0118015 -0.0129979 -0.014196 -0.0118015 -0.0134531 -0.014196 -0.0141911 -0.0134531 -0.0145667 -0.0141911 -0.0138868 -0.0145667 -0.0144101 -0.0138868 -0.0134974 -0.0144101 -0.0139934 -0.0134974 -0.013038 -0.0139934 -0.0135254 -0.013038 -0.012519 -0.0135254 -0.0130117 -0.012519 -0.0119504 -0.0130117 -0.012458 -0.0119504 -0.0113398 -0.012458 -0.011871 -0.0113398 -0.0106942 -0.011871 -0.011256 -0.0106942 -0.0100196 -0.011256 -0.0106181 -0.0100196 -0.00932163 -0.0106181 -0.00996165 -0.00932163 -0.00860537 -0.00996165 -0.00929096 -0.00860537 -0.00787542 -0.00929096 -0.00860986 -0.00787542 -0.00713597 -0.00860986 -0.00792191 -0.00713597 -0.00639085 -0.00792191 -0.00723033 -0.00639085 -0.0056435 -0.00723033 -0.00653806 -0.0056435 -0.00489702 -0.00653806 -0.00584775 -0.00489702 -0.00415417 -0.00584775 -0.00516175 -0.00415417 -0.00341742 -0.00516175 -0.00448216 -0.00341742 -0.00268894 -0.00448216 -0.00381083 -0.00268894 -0.00197062 -0.00381083 -0.00314938 -0.00197062 -0.00126414 -0.00314938 -0.00249922 -0.00126414 -0.000570934 -0.00249922 -0.00186159 -0.000570934 0.000107731 -0.00186159 -0.00123755 0.000107731 0.000770778 -0.00123755 -0.000628025 0.000770778 0.00141728 -0.000628025 -3.37958e-05 0.00141728 0.00204643 -3.37958e-05 0.000544457 0.00204643 0.00265758 0.000544457 0.00110616 0.00265758 0.00325015 0.00110616 0.00165083 0.00325015 0.0038237 0.00165083 0.00217808 0.0038237 0.00437785 0.00217808 0.0026876 0.00437785 0.00491233 0.0026876 0.00317916 0.00491233 0.00542698 0.00317916 0.00365261 0.00542698 0.00592168 0.00365261 0.00410789 0.00592168 0.00639643 0.00410789 0.00454501 0.00639643 0.00685129 0.00454501 0.00496404 0.00685129 0.00728641 0.00496404 0.00536516 0.00728641 0.00770199 0.00536516 0.00574859 0.00770199 0.00809833 0.00574859 0.00611463 0.00809833 0.00847577 0.00611463 0.00646364 0.00847577 0.00883468 0.00646364 0.00679603 0.00883468 0.00917553 0.00679603 0.00711226 0.00917553 0.00949878 0.00711226 0.00741285 0.00949878 0.00980493 0.00741285 0.00769833 0.00980493 0.0100945 0.00769833 0.00796928 0.0100945 0.0103681 0.00796928 0.00822628 0.0103681 0.0106262 0.00822628 0.00846997 0.0106262 0.0108694 0.00846997 0.00870096 0.0108694 0.0110983 0.00870096 0.00891988 0.0110983 0.0113135 0.00891988 0.00912737 0.0113135 0.0115156 0.00912737 0.00932404 0.0115156 0.0117053 0.00932404 0.00951046 0.0117053 0.0118833 0.00951046 0.00968718 0.0118833 0.0120506 0.00968718 0.0098546 0.0120506 0.0122082 0.0098546 0.010013 0.0122082 0.0123573 0.010013 0.0101626 0.0123573 0.0124998 0.0101626 0.0103032 0.0124998 0.012638 0.0103032 0.0104351 0.012638 0.0127755 0.0104351 0.0105589 0.0127755 0.0129173 0.0105589 0.0106773 0.0129173 0.0130707 0.0106773 0.0107963 0.0130707 0.0132448 0.0107963 0.0109263 0.0132448 0.013449 0.0109263 0.0110802 0.013449 0.0136902 0.0110802 0.0112694 0.0136902 0.0139707 0.0112694 0.0114978 0.0139707 0.0142874 0.0114978 0.0117607 0.0142874 0.0146336 0.0117607 0.0120493 0.0146336 0.0150023 0.0120493 0.0123549 0.0150023 0.0153873 0.0123549 0.0126724 0.0153873 0.0157844 0.0126724 0.0129994 0.0157844 0.0161907 0.0129994 0.0133353 0.0161907 0.0166042 0.0133353 0.0136798 0.0166042 0.0170232 0.0136798 0.0140324 0.0170232 0.0174462 0.0140324 0.014392 0.0174462 0.0178717 0.014392 0.0147572 0.0178717 0.018298 0.0147572 0.0151262 0.018298 0.0187238 0.0151262 0.0154975 0.0187238 0.0191478 0.0154975 0.0158695 0.0191478 0.0195688 0.0158695 0.0162407 0.0195688 0.0199856 0.0162407 0.0166099 0.0199856 0.0203972 0.0166099 0.0169759 0.0203972 0.0208026 0.0169759 0.0173375 0.0208026 0.021201 0.0173375 0.0176937 0.021201 0.0215913 0.0176937 0.0180435 0.0215913 0.0219727 0.0180435 0.0183859 0.0219727 0.0223445 0.0183859 0.0187201 0.0223445 0.0227059 0.0187201 0.0190452 0.0227059 0.0230561 0.0190452 0.0193605 0.0230561 0.0233948 0.0193605 0.0196653 0.0233948 0.0237212 0.0196653 0.0199592 0.0237212 0.0240351 0.0199592 0.0202418 0.0240351 0.0243362 0.0202418 0.0205126 0.0243362 0.0246242 0.0205126 0.0207715 0.0246242 0.024899 0.0207715 0.0210183 0.024899 0.0251608 0.0210183 0.0212531 0.0251608 0.0254096 0.0212531 0.0214759 0.0254096 0.0256456 0.0214759 0.021687 0.0256456 0.0258693 0.021687 0.0218865 0.0258693 0.026081 0.0218865 0.022075 0.026081 0.0262812 0.022075 0.0222529 0.0262812 0.0264707 0.0222529 0.0224206 0.0264707 0.02665 0.0224206 0.0225789 0.02665 0.02682 0.0225789 0.0227284 0.02682 0.0269814 0.0227284 0.0228698 0.0269814 0.0271352 0.0228698 0.0230039 0.0271352 0.0272823 0.0230039 0.0231316 0.0272823 0.0274237 0.0231316 0.0232538 0.0274237 0.0275604 0.0232538 0.0233714 0.0275604 0.0276935 0.0233714 0.0234852 0.0276935 0.0278241 0.0234852 0.0235964 0.0278241 0.0279533 0.0235964 0.0237058 0.0279533 0.0280822 0.0237058 0.0238145 0.0280822 0.028212 0.0238145 0.0239235 0.028212 0.0283439 0.0239235 0.0240339 0.0283439 0.028479 0.0240339 0.0241467 0.028479 0.0286185 0.0241467 0.0242628 0.0286185 0.0287636 0.0242628 0.0243833 0.0287636 0.0289153