# vtk DataFile Version 3.0
#This file was generated by the deal.II library on 2021/2/9 at 23:06:33
ASCII
DATASET UNSTRUCTURED_GRID

POINTS 43200 double
0 -0.5 0
0.0166667 -0.5 0
0 -0.483333 0
0.0166667 -0.483333 0
0.0166667 -0.5 0
0.0333333 -0.5 0
0.0166667 -0.483333 0
0.0333333 -0.483333 0
0.0333333 -0.5 0
0.05 -0.5 0
0.0333333 -0.483333 0
0.05 -0.483333 0
0.05 -0.5 0
0.0666667 -0.5 0
0.05 -0.483333 0
0.0666667 -0.483333 0
0.0666667 -0.5 0
0.0833333 -0.5 0
0.0666667 -0.483333 0
0.0833333 -0.483333 0
0.0833333 -0.5 0
0.1 -0.5 0
0.0833333 -0.483333 0
0.1 -0.483333 0
0.1 -0.5 0
0.116667 -0.5 0
0.1 -0.483333 0
0.116667 -0.483333 0
0.116667 -0.5 0
0.133333 -0.5 0
0.116667 -0.483333 0
0.133333 -0.483333 0
0.133333 -0.5 0
0.15 -0.5 0
0.133333 -0.483333 0
0.15 -0.483333 0
0.15 -0.5 0
0.166667 -0.5 0
0.15 -0.483333 0
0.166667 -0.483333 0
0.166667 -0.5 0
0.183333 -0.5 0
0.166667 -0.483333 0
0.183333 -0.483333 0
0.183333 -0.5 0
0.2 -0.5 0
0.183333 -0.483333 0
0.2 -0.483333 0
0.2 -0.5 0
0.216667 -0.5 0
0.2 -0.483333 0
0.216667 -0.483333 0
0.216667 -0.5 0
0.233333 -0.5 0
0.216667 -0.483333 0
0.233333 -0.483333 0
0.233333 -0.5 0
0.25 -0.5 0
0.233333 -0.483333 0
0.25 -0.483333 0
0.25 -0.5 0
0.266667 -0.5 0
0.25 -0.483333 0
0.266667 -0.483333 0
0.266667 -0.5 0
0.283333 -0.5 0
0.266667 -0.483333 0
0.283333 -0.483333 0
0.283333 -0.5 0
0.3 -0.5 0
0.283333 -0.483333 0
0.3 -0.483333 0
0.3 -0.5 0
0.316667 -0.5 0
0.3 -0.483333 0
0.316667 -0.483333 0
0.316667 -0.5 0
0.333333 -0.5 0
0.316667 -0.483333 0
0.333333 -0.483333 0
0.333333 -0.5 0
0.35 -0.5 0
0.333333 -0.483333 0
0.35 -0.483333 0
0.35 -0.5 0
0.366667 -0.5 0
0.35 -0.483333 0
0.366667 -0.483333 0
0.366667 -0.5 0
0.383333 -0.5 0
0.366667 -0.483333 0
0.383333 -0.483333 0
0.383333 -0.5 0
0.4 -0.5 0
0.383333 -0.483333 0
0.4 -0.483333 0
0.4 -0.5 0
0.416667 -0.5 0
0.4 -0.483333 0
0.416667 -0.483333 0
0.416667 -0.5 0
0.433333 -0.5 0
0.416667 -0.483333 0
0.433333 -0.483333 0
0.433333 -0.5 0
0.45 -0.5 0
0.433333 -0.483333 0
0.45 -0.483333 0
0.45 -0.5 0
0.466667 -0.5 0
0.45 -0.483333 0
0.466667 -0.483333 0
0.466667 -0.5 0
0.483333 -0.5 0
0.466667 -0.483333 0
0.483333 -0.483333 0
0.483333 -0.5 0
0.5 -0.5 0
0.483333 -0.483333 0
0.5 -0.483333 0
0.5 -0.5 0
0.516667 -0.5 0
0.5 -0.483333 0
0.516667 -0.483333 0
0.516667 -0.5 0
0.533333 -0.5 0
0.516667 -0.483333 0
0.533333 -0.483333 0
0.533333 -0.5 0
0.55 -0.5 0
0.533333 -0.483333 0
0.55 -0.483333 0
0.55 -0.5 0
0.566667 -0.5 0
0.55 -0.483333 0
0.566667 -0.483333 0
0.566667 -0.5 0
0.583333 -0.5 0
0.566667 -0.483333 0
0.583333 -0.483333 0
0.583333 -0.5 0
0.6 -0.5 0
0.583333 -0.483333 0
0.6 -0.483333 0
0.6 -0.5 0
0.616667 -0.5 0
0.6 -0.483333 0
0.616667 -0.483333 0
0.616667 -0.5 0
0.633333 -0.5 0
0.616667 -0.483333 0
0.633333 -0.483333 0
0.633333 -0.5 0
0.65 -0.5 0
0.633333 -0.483333 0
0.65 -0.483333 0
0.65 -0.5 0
0.666667 -0.5 0
0.65 -0.483333 0
0.666667 -0.483333 0
0.666667 -0.5 0
0.683333 -0.5 0
0.666667 -0.483333 0
0.683333 -0.483333 0
0.683333 -0.5 0
0.7 -0.5 0
0.683333 -0.483333 0
0.7 -0.483333 0
0.7 -0.5 0
0.716667 -0.5 0
0.7 -0.483333 0
0.716667 -0.483333 0
0.716667 -0.5 0
0.733333 -0.5 0
0.716667 -0.483333 0
0.733333 -0.483333 0
0.733333 -0.5 0
0.75 -0.5 0
0.733333 -0.483333 0
0.75 -0.483333 0
0.75 -0.5 0
0.766667 -0.5 0
0.75 -0.483333 0
0.766667 -0.483333 0
0.766667 -0.5 0
0.783333 -0.5 0
0.766667 -0.483333 0
0.783333 -0.483333 0
0.783333 -0.5 0
0.8 -0.5 0
0.783333 -0.483333 0
0.8 -0.483333 0
0.8 -0.5 0
0.816667 -0.5 0
0.8 -0.483333 0
0.816667 -0.483333 0
0.816667 -0.5 0
0.833333 -0.5 0
0.816667 -0.483333 0
0.833333 -0.483333 0
0.833333 -0.5 0
0.85 -0.5 0
0.833333 -0.483333 0
0.85 -0.483333 0
0.85 -0.5 0
0.866667 -0.5 0
0.85 -0.483333 0
0.866667 -0.483333 0
0.866667 -0.5 0
0.883333 -0.5 0
0.866667 -0.483333 0
0.883333 -0.483333 0
0.883333 -0.5 0
0.9 -0.5 0
0.883333 -0.483333 0
0.9 -0.483333 0
0.9 -0.5 0
0.916667 -0.5 0
0.9 -0.483333 0
0.916667 -0.483333 0
0.916667 -0.5 0
0.933333 -0.5 0
0.916667 -0.483333 0
0.933333 -0.483333 0
0.933333 -0.5 0
0.95 -0.5 0
0.933333 -0.483333 0
0.95 -0.483333 0
0.95 -0.5 0
0.966667 -0.5 0
0.95 -0.483333 0
0.966667 -0.483333 0
0.966667 -0.5 0
0.983333 -0.5 0
0.966667 -0.483333 0
0.983333 -0.483333 0
0.983333 -0.5 0
1 -0.5 0
0.983333 -0.483333 0
1 -0.483333 0
1 -0.5 0
1.01667 -0.5 0
1 -0.483333 0
1.01667 -0.483333 0
1.01667 -0.5 0
1.03333 -0.5 0
1.01667 -0.483333 0
1.03333 -0.483333 0
1.03333 -0.5 0
1.05 -0.5 0
1.03333 -0.483333 0
1.05 -0.483333 0
1.05 -0.5 0
1.06667 -0.5 0
1.05 -0.483333 0
1.06667 -0.483333 0
1.06667 -0.5 0
1.08333 -0.5 0
1.06667 -0.483333 0
1.08333 -0.483333 0
1.08333 -0.5 0
1.1 -0.5 0
1.08333 -0.483333 0
1.1 -0.483333 0
1.1 -0.5 0
1.11667 -0.5 0
1.1 -0.483333 0
1.11667 -0.483333 0
1.11667 -0.5 0
1.13333 -0.5 0
1.11667 -0.483333 0
1.13333 -0.483333 0
1.13333 -0.5 0
1.15 -0.5 0
1.13333 -0.483333 0
1.15 -0.483333 0
1.15 -0.5 0
1.16667 -0.5 0
1.15 -0.483333 0
1.16667 -0.483333 0
1.16667 -0.5 0
1.18333 -0.5 0
1.16667 -0.483333 0
1.18333 -0.483333 0
1.18333 -0.5 0
1.2 -0.5 0
1.18333 -0.483333 0
1.2 -0.483333 0
1.2 -0.5 0
1.21667 -0.5 0
1.2 -0.483333 0
1.21667 -0.483333 0
1.21667 -0.5 0
1.23333 -0.5 0
1.21667 -0.483333 0
1.23333 -0.483333 0
1.23333 -0.5 0
1.25 -0.5 0
1.23333 -0.483333 0
1.25 -0.483333 0
1.25 -0.5 0
1.26667 -0.5 0
1.25 -0.483333 0
1.26667 -0.483333 0
1.26667 -0.5 0
1.28333 -0.5 0
1.26667 -0.483333 0
1.28333 -0.483333 0
1.28333 -0.5 0
1.3 -0.5 0
1.28333 -0.483333 0
1.3 -0.483333 0
1.3 -0.5 0
1.31667 -0.5 0
1.3 -0.483333 0
1.31667 -0.483333 0
1.31667 -0.5 0
1.33333 -0.5 0
1.31667 -0.483333 0
1.33333 -0.483333 0
1.33333 -0.5 0
1.35 -0.5 0
1.33333 -0.483333 0
1.35 -0.483333 0
1.35 -0.5 0
1.36667 -0.5 0
1.35 -0.483333 0
1.36667 -0.483333 0
1.36667 -0.5 0
1.38333 -0.5 0
1.36667 -0.483333 0
1.38333 -0.483333 0
1.38333 -0.5 0
1.4 -0.5 0
1.38333 -0.483333 0
1.4 -0.483333 0
1.4 -0.5 0
1.41667 -0.5 0
1.4 -0.483333 0
1.41667 -0.483333 0
1.41667 -0.5 0
1.43333 -0.5 0
1.41667 -0.483333 0
1.43333 -0.483333 0
1.43333 -0.5 0
1.45 -0.5 0
1.43333 -0.483333 0
1.45 -0.483333 0
1.45 -0.5 0
1.46667 -0.5 0
1.45 -0.483333 0
1.46667 -0.483333 0
1.46667 -0.5 0
1.48333 -0.5 0
1.46667 -0.483333 0
1.48333 -0.483333 0
1.48333 -0.5 0
1.5 -0.5 0
1.48333 -0.483333 0
1.5 -0.483333 0
1.5 -0.5 0
1.51667 -0.5 0
1.5 -0.483333 0
1.51667 -0.483333 0
1.51667 -0.5 0
1.53333 -0.5 0
1.51667 -0.483333 0
1.53333 -0.483333 0
1.53333 -0.5 0
1.55 -0.5 0
1.53333 -0.483333 0
1.55 -0.483333 0
1.55 -0.5 0
1.56667 -0.5 0
1.55 -0.483333 0
1.56667 -0.483333 0
1.56667 -0.5 0
1.58333 -0.5 0
1.56667 -0.483333 0
1.58333 -0.483333 0
1.58333 -0.5 0
1.6 -0.5 0
1.58333 -0.483333 0
1.6 -0.483333 0
1.6 -0.5 0
1.61667 -0.5 0
1.6 -0.483333 0
1.61667 -0.483333 0
1.61667 -0.5 0
1.63333 -0.5 0
1.61667 -0.483333 0
1.63333 -0.483333 0
1.63333 -0.5 0
1.65 -0.5 0
1.63333 -0.483333 0
1.65 -0.483333 0
1.65 -0.5 0
1.66667 -0.5 0
1.65 -0.483333 0
1.66667 -0.483333 0
1.66667 -0.5 0
1.68333 -0.5 0
1.66667 -0.483333 0
1.68333 -0.483333 0
1.68333 -0.5 0
1.7 -0.5 0
1.68333 -0.483333 0
1.7 -0.483333 0
1.7 -0.5 0
1.71667 -0.5 0
1.7 -0.483333 0
1.71667 -0.483333 0
1.71667 -0.5 0
1.73333 -0.5 0
1.71667 -0.483333 0
1.73333 -0.483333 0
1.73333 -0.5 0
1.75 -0.5 0
1.73333 -0.483333 0
1.75 -0.483333 0
1.75 -0.5 0
1.76667 -0.5 0
1.75 -0.483333 0
1.76667 -0.483333 0
1.76667 -0.5 0
1.78333 -0.5 0
1.76667 -0.483333 0
1.78333 -0.483333 0
1.78333 -0.5 0
1.8 -0.5 0
1.78333 -0.483333 0
1.8 -0.483333 0
1.8 -0.5 0
1.81667 -0.5 0
1.8 -0.483333 0
1.81667 -0.483333 0
1.81667 -0.5 0
1.83333 -0.5 0
1.81667 -0.483333 0
1.83333 -0.483333 0
1.83333 -0.5 0
1.85 -0.5 0
1.83333 -0.483333 0
1.85 -0.483333 0
1.85 -0.5 0
1.86667 -0.5 0
1.85 -0.483333 0
1.86667 -0.483333 0
1.86667 -0.5 0
1.88333 -0.5 0
1.86667 -0.483333 0
1.88333 -0.483333 0
1.88333 -0.5 0
1.9 -0.5 0
1.88333 -0.483333 0
1.9 -0.483333 0
1.9 -0.5 0
1.91667 -0.5 0
1.9 -0.483333 0
1.91667 -0.483333 0
1.91667 -0.5 0
1.93333 -0.5 0
1.91667 -0.483333 0
1.93333 -0.483333 0
1.93333 -0.5 0
1.95 -0.5 0
1.93333 -0.483333 0
1.95 -0.483333 0
1.95 -0.5 0
1.96667 -0.5 0
1.95 -0.483333 0
1.96667 -0.483333 0
1.96667 -0.5 0
1.98333 -0.5 0
1.96667 -0.483333 0
1.98333 -0.483333 0
1.98333 -0.5 0
2 -0.5 0
1.98333 -0.483333 0
2 -0.483333 0
2 -0.5 0
2.01667 -0.5 0
2 -0.483333 0
2.01667 -0.483333 0
2.01667 -0.5 0
2.03333 -0.5 0
2.01667 -0.483333 0
2.03333 -0.483333 0
2.03333 -0.5 0
2.05 -0.5 0
2.03333 -0.483333 0
2.05 -0.483333 0
2.05 -0.5 0
2.06667 -0.5 0
2.05 -0.483333 0
2.06667 -0.483333 0
2.06667 -0.5 0
2.08333 -0.5 0
2.06667 -0.483333 0
2.08333 -0.483333 0
2.08333 -0.5 0
2.1 -0.5 0
2.08333 -0.483333 0
2.1 -0.483333 0
2.1 -0.5 0
2.11667 -0.5 0
2.1 -0.483333 0
2.11667 -0.483333 0
2.11667 -0.5 0
2.13333 -0.5 0
2.11667 -0.483333 0
2.13333 -0.483333 0
2.13333 -0.5 0
2.15 -0.5 0
2.13333 -0.483333 0
2.15 -0.483333 0
2.15 -0.5 0
2.16667 -0.5 0
2.15 -0.483333 0
2.16667 -0.483333 0
2.16667 -0.5 0
2.18333 -0.5 0
2.16667 -0.483333 0
2.18333 -0.483333 0
2.18333 -0.5 0
2.2 -0.5 0
2.18333 -0.483333 0
2.2 -0.483333 0
2.2 -0.5 0
2.21667 -0.5 0
2.2 -0.483333 0
2.21667 -0.483333 0
2.21667 -0.5 0
2.23333 -0.5 0
2.21667 -0.483333 0
2.23333 -0.483333 0
2.23333 -0.5 0
2.25 -0.5 0
2.23333 -0.483333 0
2.25 -0.483333 0
2.25 -0.5 0
2.26667 -0.5 0
2.25 -0.483333 0
2.26667 -0.483333 0
2.26667 -0.5 0
2.28333 -0.5 0
2.26667 -0.483333 0
2.28333 -0.483333 0
2.28333 -0.5 0
2.3 -0.5 0
2.28333 -0.483333 0
2.3 -0.483333 0
2.3 -0.5 0
2.31667 -0.5 0
2.3 -0.483333 0
2.31667 -0.483333 0
2.31667 -0.5 0
2.33333 -0.5 0
2.31667 -0.483333 0
2.33333 -0.483333 0
2.33333 -0.5 0
2.35 -0.5 0
2.33333 -0.483333 0
2.35 -0.483333 0
2.35 -0.5 0
2.36667 -0.5 0
2.35 -0.483333 0
2.36667 -0.483333 0
2.36667 -0.5 0
2.38333 -0.5 0
2.36667 -0.483333 0
2.38333 -0.483333 0
2.38333 -0.5 0
2.4 -0.5 0
2.38333 -0.483333 0
2.4 -0.483333 0
2.4 -0.5 0
2.41667 -0.5 0
2.4 -0.483333 0
2.41667 -0.483333 0
2.41667 -0.5 0
2.43333 -0.5 0
2.41667 -0.483333 0
2.43333 -0.483333 0
2.43333 -0.5 0
2.45 -0.5 0
2.43333 -0.483333 0
2.45 -0.483333 0
2.45 -0.5 0
2.46667 -0.5 0
2.45 -0.483333 0
2.46667 -0.483333 0
2.46667 -0.5 0
[...]
POINT_DATA 43200
SCALARS x1_displacement double 1
LOOKUP_TABLE default
0 -0.000269119 0 -4.27145e-05 -0.000269119 -0.000381209 -4.27145e-05 -7.28392e-05 -0.000381209 -0.000376597 -7.28392e-05 -4.45688e-05 -0.000376597 -0.000286646 -4.45688e-05 4.17983e-05 -0.000286646 -0.000126949 4.17983e-05 0.000181272 -0.000126949 9.12013e-05 0.000181272 0.000368187 9.12013e-05 0.000359311 0.000368187 0.000597239 0.000359311 0.000670518 0.000597239 0.000863645 0.000670518 0.00101909 0.000863645 0.00116311 0.00101909 0.00140011 0.00116311 0.00149178 0.00140011 0.00180931 0.00149178 0.00184616 0.00180931 0.0022429 0.00184616 0.00222311 0.0022429 0.00269755 0.00222311 0.00261975 0.00269755 0.00317022 0.00261975 0.00303348 0.00317022 0.00365824 0.00303348 0.00346192 0.00365824 0.00415917 0.00346192 0.00390291 0.00415917 0.00467083 0.00390291 0.00435449 0.00467083 0.00519124 0.00435449 0.00481487 0.00519124 0.00571863 0.00481487 0.00528245 0.00571863 0.00625143 0.00528245 0.00575575 0.00625143 0.00678821 0.00575575 0.00623346 0.00678821 0.00732771 0.00623346 0.00671441 0.00732771 0.00786881 0.00671441 0.00719754 0.00786881 0.00841053 0.00719754 0.00768192 0.00841053 0.00895201 0.00768192 0.00816671 0.00895201 0.00949248 0.00816671 0.0086512 0.00949248 0.0100313 0.0086512 0.00913475 0.0100313 0.0105679 0.00913475 0.00961682 0.0105679 0.0111019 0.00961682 0.0100969 0.0111019 0.0116328 0.0100969 0.0105747 0.0116328 0.0121603 0.0105747 0.0110497 0.0121603 0.0126841 0.0110497 0.0115219 0.0126841 0.0132041 0.0115219 0.0119908 0.0132041 0.0137201 0.0119908 0.0124564 0.0137201 0.014232 0.0124564 0.0129185 0.014232 0.0147398 0.0129185 0.013377 0.0147398 0.0152433 0.013377 0.0138319 0.0152433 0.0157426 0.0138319 0.0142832 0.0157426 0.0162378 0.0142832 0.0147308 0.0162378 0.0167288 0.0147308 0.0151747 0.0167288 0.0172158 0.0151747 0.0156151 0.0172158 0.0176988 0.0156151 0.0160519 0.0176988 0.0181779 0.0160519 0.0164853 0.0181779 0.0186533 0.0164853 0.0169152 0.0186533 0.019125 0.0169152 0.0173419 0.019125 0.0195931 0.0173419 0.0177654 0.0195931 0.0200579 0.0177654 0.0181857 0.0200579 0.0205194 0.0181857 0.0186031 0.0205194 0.0209777 0.0186031 0.0190176 0.0209777 0.0214329 0.0190176 0.0194293 0.0214329 0.0218853 0.0194293 0.0198383 0.0218853 0.0223349 0.0198383 0.0202447 0.0223349 0.0227819 0.0202447 0.0206487 0.0227819 0.0232263 0.0206487 0.0210503 0.0232263 0.0236682 0.0210503 0.0214497 0.0236682 0.0241079 0.0214497 0.0218469 0.0241079 0.0245453 0.0218469 0.022242 0.0245453 0.0249806 0.022242 0.0226351 0.0249806 0.0254139 0.0226351 0.0230263 0.0254139 0.0258453 0.0230263 0.0234157 0.0258453 0.0262748 0.0234157 0.0238033 0.0262748 0.0267025 0.0238033 0.0241892 0.0267025 0.0271285 0.0241892 0.0245735 0.0271285 0.0275528 0.0245735 0.0249562 0.0275528 0.0279755 0.0249562 0.0253374 0.0279755 0.0283967 0.0253374 0.0257171 0.0283967 0.0288164 0.0257171 0.0260954 0.0288164 0.0292346 0.0260954 0.0264723 0.0292346 0.0296514 0.0264723 0.0268478 0.0296514 0.0300668 0.0268478 0.027222 0.0300668 0.0304808 0.027222 0.0275948 0.0304808 0.0308934 0.0275948 0.0279664 0.0308934 0.0313047 0.0279664 0.0283366 0.0313047 0.0317147 0.0283366 0.0287056 0.0317147 0.0321234 0.0287056 0.0290734 0.0321234 0.0325308 0.0290734 0.0294399 0.0325308 0.0329368 0.0294399 0.0298051 0.0329368 0.0333416 0.0298051 0.0301691 0.0333416 0.033745 0.0301691 0.0305319 0.033745 0.0341472 0.0305319 0.0308934 0.0341472 0.0345481 0.0308934 0.0312537 0.0345481 0.0349476 0.0312537 0.0316127 0.0349476 0.0353459 0.0316127 0.0319705 0.0353459 0.0357428 0.0319705 0.0323271 0.0357428 0.0361384 0.0323271 0.0326823 0.0361384 0.0365327 0.0326823 0.0330363 0.0365327 0.0369256 0.0330363 0.033389 0.0369256 0.0373172 0.033389 0.0337404 0.0373172 0.0377074 0.0337404 0.0340904 0.0377074 0.0380962 0.0340904 0.0344392 0.0380962 0.0384836 0.0344392 0.0347866 0.0384836 0.0388695 0.0347866 0.0351326 0.0388695 0.039254 0.0351326 0.0354772 0.039254 0.039637 0.0354772 0.0358203 0.039637 0.0400184 0.0358203 0.036162 0.0400184 0.0403982 0.036162 0.0365021 0.0403982 0.0407763 0.0365021 0.0368406 0.0407763 0.0411528 0.0368406 0.0371776 0.0411528 0.0415274 0.0371776 0.0375128 0.0415274 0.0419001 0.0375128 0.0378463 0.0419001 0.042271 0.0378463 0.0381779 0.042271 0.0426397 0.0381779 0.0385077 0.0426397 0.0430064 0.0385077 0.0388356 0.0430064 0.0433709 0.0388356 0.0391615 0.0433709 0.0437332 0.0391615 0.0394853 0.0437332 0.0440931 0.0394853 0.039807 0.0440931 0.0444507 0.039807 0.0401266 0.0444507 0.044806 0.0401266 0.0404441 0.044806 0.0451588 0.0404441 0.0407594 0.0451588 0.0455092 0.0407594 0.0410726 0.0455092 0.0458573 0.0410726 0.0413837 0.0458573 0.0462031 0.0413837 0.0416928 0.0462031 0.0465467 0.0416928 0.042 0.0465467 0.0468882 0.042 0.0423054 0.0468882 0.0472279 0.0423054 0.0426092 0.0472279 0.0475658 0.0426092 0.0429114 0.0475658 0.0479023 0.0429114 0.0432125 0.0479023 0.0482376 0.0432125 0.0435125 0.0482376 0.048572 0.0435125 0.0438118 0.048572 0.0489059 0.0438118 0.0441107 0.0489059 0.0492395 0.0441107 0.0444095 0.0492395 0.0495734 0.0444095 0.0447085 0.0495734 0.0499079 0.0447085 0.0450081 0.0499079 0.0502434 0.0450081 0.0453087 0.0502434 0.0505806 0.0453087 0.0456108 0.0505806 0.0509197 0.0456108 0.0459148 0.0509197 0.0512615 0.0459148 0.0462212 0.0512615 0.0516065 0.0462212 0.0465304 0.0516065 0.0519551 0.0465304 0.0468429 0.0519551 0.0523081 0.0468429 0.0471593 0.0523081 0.052666 0.0471593 0.0474801 0.052666 0.0530295 0.0474801 0.0478058 0.0530295 0.0533991 0.0478058 0.0481369 0.0533991 0.0537754 0.0481369 0.048474 0.0537754 0.0541592 0.048474 0.0488176 0.0541592 0.054551 0.0488176 0.0491682 0.054551 0.0549513 0.0491682 0.0495262 0.0549513 0.0553608 0.0495262 0.0498921 0.0553608 0.0557799 0.0498921 0.0502662 0.0557799 0.056209 0.0502662 0.050649 0.056209 0.0566485 0.050649 0.0510406 0.0566485 0.0570986 0.0510406 0.0514412 0.0570986 0.0575596 0.0514412 0.0518509 0.0575596 0.0580314 0.0518509 0.0522696 0.0580314 0.0585138 0.0522696 0.0526972 0.0585138 0.0590065 0.0526972 0.0531331 0.0590065 0.0595091 0.0531331 0.053577 0.0595091 0.0600207 0.053577 0.0540281 0.0600207 0.0605402 0.0540281 0.0544853 0.0605402 0.0610664 0.0544853 0.0549476 0.0610664 0.0615976 0.0549476 0.0554134 0.0615976 0.0621319 0.0554134 0.055881 0.0621319 0.062667 0.055881 0.0563486 0.062667 0.0632003 0.0563486 0.0568138 0.0632003 0.0637291 0.0568138 0.0572743 0.0637291 0.0642502 0.0572743 0.0577276 0.0642502 0.0647605 0.0577276 0.0581709 0.0647605 0.0652568 0.0581709 0.0586015 0.0652568 0.0657361 0.0586015 0.0590168 0.0657361 0.0661955 0.0590168 0.0594145 0.0661955 0.0666326 0.0594145 0.0597923 0.0666326 0.067046 0.0597923 0.0601485 0.067046 0.0674347 0.0601485 0.0604819 0.0674347 0.0677989 0.0604819 0.060792 0.0677989 0.0681395 0.060792 0.0610785 0.0681395 0.0684578 0.0610785 0.0613418 0.0684578 0.0687554 0.0613418 0.061582 0.0687554 0.0690335 0.061582 0.0617987 0.0690335 0.0692935 0.0617987 0.0619913 0.0692935 0.0695376 0.0619913 0.0621589 0.0695376 0.069769 0.0621589 0.0623009 0.069769 0.0699907 0.0623009 0.0624163 0.0699907 0.0702025 0.0624163 0.0625044 0.0702025 0.0703906 0.0625044 0.0625666 0.0703906 0.0705233 0.0625666 0.0625921 0.0705233 0.0705703 0.0625921 0.0625675 0.0705703 0.0705412 0.0625675 0.0625057 0.0705412 0.0704868 0.0625057 0.0624459 0.0704868 0.0704541 0.0624459 0.0624173 0.0704541 0.0704476 0.0624173 0.0624168 0 -4.27145e-05 0 1.88737e-05 -4.27145e-05 -7.28392e-05 1.88737e-05 6.60831e-05 -7.28392e-05 -4.45688e-05 6.60831e-05 0.000134126 -4.45688e-05 4.17983e-05 0.000134126 0.000234363 4.17983e-05 0.000181272 0.000234363 0.000369481 0.000181272 0.000368187 0.000369481 0.000539108 0.000368187 0.000597239 0.000539108 0.000741392 0.000597239 0.000863645 0.000741392 0.000973901 0.000863645 0.00116311 0.000973901 0.00123401 0.00116311 0.00149178 0.00123401 0.00151909 0.00149178 0.00184616 0.00151909 0.00182658 0.00184616 0.00222311 0.00182658 0.00215405 0.00222311 0.00261975 0.00215405 0.00249922 0.00261975 0.00303348 0.00249922 0.00285993 0.00303348 0.00346192 0.00285993 0.00323419 0.00346192 0.00390291 0.00323419 0.00362015 0.00390291 0.00435449 0.00362015 0.00401612 0.00435449 0.00481487 0.00401612 0.00442051 0.00481487 0.00528245 0.00442051 0.00483191 0.00528245 0.00575575 0.00483191 0.005249 0.00575575 0.00623346 0.005249 0.00567059 0.00623346 0.00671441 0.00567059 0.00609562 0.00671441 0.00719754 0.00609562 0.00652311 0.00719754 0.00768192 0.00652311 0.00695221 0.00768192 0.00816671 0.00695221 0.00738214 0.00816671 0.0086512 0.00738214 0.00781223 0.0086512 0.00913475 0.00781223 0.00824187 0.00913475 0.00961682 0.00824187 0.00867054 0.00961682 0.0100969 0.00867054 0.0090978 0.0100969 0.0105747 0.0090978 0.00952326 0.0105747 0.0110497 0.00952326 0.00994658 0.0110497 0.0115219 0.00994658 0.0103675 0.0115219 0.0119908 0.0103675 0.0107858 0.0119908 0.0124564 0.0107858 0.0112013 0.0124564 0.0129185 0.0112013 0.0116138 0.0129185 0.013377 0.0116138 0.0120233 0.013377 0.0138319 0.0120233 0.0124296 0.0138319 0.0142832 0.0124296 0.0128328 0.0142832 0.0147308 0.0128328 0.0132328 0.0147308 0.0151747 0.0132328 0.0136296 0.0151747 0.0156151 0.0136296 0.0140232 0.0156151 0.0160519 0.0140232 0.0144137 0.0160519 0.0164853 0.0144137 0.0148011 0.0164853 0.0169152 0.0148011 0.0151854 0.0169152 0.0173419 0.0151854 0.0155668 0.0173419 0.0177654 0.0155668 0.0159453 0.0177654 0.0181857 0.0159453 0.0163211 0.0181857 0.0186031 0.0163211 0.0166941 0.0186031 0.0190176 0.0166941 0.0170644 0.0190176 0.0194293 0.0170644 0.0174323 0.0194293 0.0198383 0.0174323 0.0177976 0.0198383 0.0202447 0.0177976 0.0181607 0.0202447 0.0206487 0.0181607 0.0185214 0.0206487 0.0210503 0.0185214 0.01888 0.0210503 0.0214497 0.01888 0.0192365 0.0214497 0.0218469 0.0192365 0.019591 0.0218469 0.022242 0.019591 0.0199436 0.022242 0.0226351 0.0199436 0.0202943 0.0226351 0.0230263 0.0202943 0.0206432 0.0230263 0.0234157 0.0206432 0.0209905 0.0234157 0.0238033 0.0209905 0.021336 0.0238033 0.0241892 0.021336 0.02168 0.0241892 0.0245735 0.02168 0.0220225 0.0245735 0.0249562 0.0220225 0.0223635 0.0249562 0.0253374 0.0223635 0.022703 0.0253374 0.0257171 0.022703 0.0230411 0.0257171 0.0260954 0.0230411 0.0233779 0.0260954 0.0264723 0.0233779 0.0237134 0.0264723 0.0268478 0.0237134 0.0240475 0.0268478 0.027222 0.0240475 0.0243804 0.027222 0.0275948 0.0243804 0.0247121 0.0275948 0.0279664 0.0247121 0.0250425 0.0279664 0.0283366 0.0250425 0.0253717 0.0283366 0.0287056 0.0253717 0.0256997 0.0287056 0.0290734 0.0256997 0.0260265 0.0290734 0.0294399 0.0260265 0.0263521 0.0294399 0.0298051 0.0263521 0.0266765 0.0298051 0.0301691 0.0266765 0.0269998 0.0301691 0.0305319 0.0269998 0.0273218 0.0305319 0.0308934 0.0273218 0.0276427 0.0308934 0.0312537 0.0276427 0.0279625 0.0312537 0.0316127 0.0279625 0.028281 0.0316127 0.0319705 0.028281 0.0285983 0.0319705 0.0323271 0.0285983 0.0289145 0.0323271 0.0326823 0.0289145 0.0292294 0.0326823 0.0330363 0.0292294 0.0295431 0.0330363 0.033389 0.0295431 0.0298556 0.033389 0.0337404 0.0298556 0.0301668 0.0337404 0.0340904 0.0301668 0.0304768 0.0340904 0.0344392 0.0304768 0.0307855 0.0344392 0.0347866 0.0307855 0.031093 0.0347866 0.0351326 0.031093 0.0313991 0.0351326 0.0354772 0.0313991 0.0317039 0.0354772 0.0358203 0.0317039 0.0320073 0.0358203 0.036162 0.0320073 0.0323093 0.036162 0.0365021 0.0323093 0.0326099 0.0365021 0.0368406 0.0326099 0.032909 0.0368406 0.0371776 0.032909 0.0332066 0.0371776 0.0375128 0.0332066 0.0335026 0.0375128 0.0378463 0.0335026 0.0337969 0.0378463 0.0381779 0.0337969 0.0340896 0.0381779 0.0385077 0.0340896 0.0343806 0.0385077 0.0388356 0.0343806 0.0346698 0.0388356 0.0391615 0.0346698 0.0349571 0.0391615 0.0394853 0.0349571 0.0352426 0.0394853 0.039807 0.0352426 0.0355262 0.039807 0.0401266 0.0355262 0.0358078 0.0401266 0.0404441 0.0358078 0.0360875 0.0404441 0.0407594 0.0360875 0.0363653 0.0407594 0.0410726 0.0363653 0.0366411 0.0410726 0.0413837 0.0366411 0.0369151 0.0413837 0.0416928 0.0369151 0.0371873 0.0416928 0.042 0.0371873 0.0374578 0.042 0.0423054 0.0374578 0.0377267 0.0423054 0.0426092 0.0377267 0.0379941 0.0426092 0.0429114 0.0379941 0.0382602 0.0429114 0.0432125 0.0382602 0.0385251 0.0432125 0.0435125 0.0385251 0.0387892 0.0435125 0.0438118 0.0387892 0.0390527 0.0438118 0.0441107 0.0390527 0.0393158 0.0441107 0.0444095 0.0393158 0.0395788 0.0444095 0.0447085 0.0395788 0.039842 0.0447085 0.0450081 0.039842 0.0401057 0.0450081 0.0453087 0.0401057 0.0403704 0.0453087 0.0456108 0.0403704 0.0406363 0.0456108 0.0459148 0.0406363 0.040904 0.0459148 0.0462212 0.040904 0.0411737 0.0462212 0.0465304 0.0411737 0.0414459 0.0465304 0.0468429 0.0414459 0.041721 0.0468429 0.0471593 0.041721 0.0419996 0.0471593 0.0474801 0.0419996 0.0422819 0.0474801 0.0478058 0.0422819 0.0425686 0.0478058 0.0481369 0.0425686 0.0428599 0.0481369 0.048474 0.0428599 0.0431565 0.048474 0.0488176 0.0431565 0.0434586 0.0488176 0.0491682 0.0434586 0.0437668 0.0491682 0.0495262 0.0437668 0.0440814 0.0495262 0.0498921 0.0440814 0.0444028 0.0498921 0.0502662 0.0444028 0.0447312 0.0502662 0.050649 0.0447312 0.045067 0.050649 0.0510406 0.045067 0.0454103 0.0510406 0.0514412 0.0454103 0.0457612 0.0514412 0.0518509 0.0457612 0.0461198 0.0518509 0.0522696 0.0461198 0.046486 0.0522696 0.0526972 0.046486 0.0468596 0.0526972 0.0531331 0.0468596 0.0472401 0.0531331 0.053577 0.0472401 0.0476272 0.053577 0.0540281 0.0476272 0.0480202 0.0540281 0.0544853 0.0480202 0.0484181 0.0544853 0.0549476 0.0484181 0.0488201 0.0549476 0.0554134 0.0488201 0.0492247 0.0554134 0.055881 0.0492247 0.0496306 0.055881 0.0563486 0.0496306 0.050036 0.0563486 0.0568138 0.050036 0.0504391 0.0568138 0.0572743 0.0504391 0.0508378 0.0572743 0.0577276 0.0508378 0.0512298 0.0577276 0.0581709 0.0512298 0.0516127 0.0581709 0.0586015 0.0516127 0.0519841 0.0586015 0.0590168 0.0519841 0.0523415 0.0590168 0.0594145 0.0523415 0.0526826 0.0594145 0.0597923 0.0526826 0.0530052 0.0597923 0.0601485 0.0530052 0.0533071 0.0601485 0.0604819 0.0533071 0.0535869 0.0604819 0.060792 0.0535869 0.0538432 0.060792 0.0610785 0.0538432 0.0540756 0.0610785 0.0613418 0.0540756 0.0542835 0.0613418 0.061582 0.0542835 0.0544667 0.061582 0.0617987 0.0544667 0.0546234 0.0617987 0.0619913 0.0546234 0.0547503 0.0619913 0.0621589 0.0547503 0.0548434 0.0621589 0.0623009 0.0548434 0.0548998 0.0623009 0.0624163 0.0548998 0.0549186 0.0624163 0.0625044 0.0549186 0.0548961 0.0625044 0.0625666 0.0548961 0.0548369 0.0625666 0.0625921 0.0548369 0.0547537 0.0625921 0.0625675 0.0547537 0.0546167 0.0625675 0.0625057 0.0546167 0.0544597 0.0625057 0.0624459 0.0544597 0.0543682 0.0624459 0.0624173 0.0543682 0.0543465 0.0624173 0.0624168 0.0543465 0.0543667 0 1.88737e-05 0 4.58301e-05 1.88737e-05 6.60831e-05 4.58301e-05 0.000121272 6.60831e-05 0.000134126 0.000121272 0.000216037 0.000134126 0.000234363 0.000216037 0.000329523 0.000234363 0.000369481 0.000329523 0.000465003 0.000369481 0.000539108 0.000465003 0.000624039 0.000539108 0.000741392 0.000624039 0.000806871 0.000741392 0.000973901 0.000806871 0.00101282 0.000973901 0.00123401 0.00101282 0.00124066 0.00123401 0.00151909 0.00124066 0.00148888 0.00151909 0.00182658 0.00148888 0.0017558 0.00182658 0.00215405 0.0017558 0.00203971 0.00215405 0.00249922 0.00203971 0.00233889 0.00249922 0.00285993 0.00233889 0.00265167 0.00285993 0.00323419 0.00265167 0.00297645 0.00323419 0.00362015 0.00297645 0.00331171 0.00362015 0.00401612 0.00331171 0.00365603 0.00401612 0.00442051 0.00365603 0.00400806 0.00442051 0.00483191 0.00400806 0.00436659 0.00483191 0.005249 0.00436659 0.00473047 0.005249 0.00567059 0.00473047 0.00509866 0.00567059 0.00609562 0.00509866 0.0054702 0.00609562 0.00652311 0.0054702 0.00584425 0.00652311 0.00695221 0.00584425 0.00622002 0.00695221 0.00738214 0.00622002 0.00659681 0.00738214 0.00781223 0.00659681 0.00697402 0.00781223 0.00824187 0.00697402 0.00735108 0.00824187 0.00867054 0.00735108 0.00772752 0.00867054 0.0090978 0.00772752 0.00810292 0.0090978 0.00952326 0.00810292 0.00847692 0.00952326 0.00994658 0.00847692 0.00884921 0.00994658 0.0103675 0.00884921 0.00921952 0.0103675 0.0107858 0.00921952 0.00958764 0.0107858 0.0112013 0.00958764 0.00995339 0.0112013 0.0116138 0.00995339 0.0103166 0.0116138 0.0120233 0.0103166 0.0106772 0.0120233 0.0124296 0.0106772 0.0110352 0.0124296 0.0128328 0.0110352 0.0113903 0.0128328 0.0132328 0.0113903 0.0117427 0.0132328 0.0136296 0.0117427 0.0120923 0.0136296 0.0140232 0.0120923 0.0124391 0.0140232 0.0144137 0.0124391 0.0127831 0.0144137 0.0148011 0.0127831 0.0131244 0.0148011 0.0151854 0.0131244 0.013463 0.0151854 0.0155668 0.013463 0.0137989 0.0155668 0.0159453 0.0137989 0.0141323 0.0159453 0.0163211 0.0141323 0.0144631 0.0163211 0.0166941 0.0144631 0.0147916 0.0166941 0.0170644 0.0147916 0.0151176 0.0170644 0.0174323 0.0151176 0.0154413 0.0174323 0.0177976 0.0154413 0.0157629 0.0177976 0.0181607 0.0157629 0.0160823 0.0181607 0.0185214 0.0160823 0.0163996 0.0185214 0.01888 0.0163996 0.016715 0.01888 0.0192365 0.016715 0.0170284 0.0192365 0.019591 0.0170284 0.01734 0.019591 0.0199436 0.01734 0.0176499 0.0199436 0.0202943 0.0176499 0.017958 0.0202943 0.0206432 0.017958 0.0182645 0.0206432 0.0209905 0.0182645 0.0185694 0.0209905 0.021336 0.0185694 0.0188728 0.021336 0.02168 0.0188728 0.0191747 0.02168 0.0220225 0.0191747 0.0194752 0.0220225 0.0223635 0.0194752 0.0197743 0.0223635 0.022703 0.0197743 0.0200721 0.022703 0.0230411 0.0200721 0.0203685 0.0230411 0.0233779 0.0203685 0.0206637 0.0233779 0.0237134 0.0206637 0.0209577 0.0237134 0.0240475 0.0209577 0.0212504 0.0240475 0.0243804 0.0212504 0.021542 0.0243804 0.0247121 0.021542 0.0218324 0.0247121 0.0250425 0.0218324 0.0221216 0.0250425 0.0253717 0.0221216 0.0224097 0.0253717 0.0256997 0.0224097 0.0226967 0.0256997 0.0260265 0.0226967 0.0229825 0.0260265 0.0263521 0.0229825 0.0232673 0.0263521 0.0266765 0.0232673 0.0235509 0.0266765 0.0269998 0.0235509 0.0238334 0.0269998 0.0273218 0.0238334 0.0241147 0.0273218 0.0276427 0.0241147 0.024395 0.0276427 0.0279625 0.024395 0.0246742 0.0279625 0.028281 0.0246742 0.0249522 0.028281 0.0285983 0.0249522 0.0252291 0.0285983 0.0289145 0.0252291 0.0255049 0.0289145 0.0292294 0.0255049 0.0257795 0.0292294 0.0295431 0.0257795 0.026053 0.0295431 0.0298556 0.026053 0.0263253 0.0298556 0.0301668 0.0263253 0.0265964 0.0301668 0.0304768 0.0265964 0.0268664 0.0304768 0.0307855 0.0268664 0.0271351 0.0307855 0.031093 0.0271351 0.0274027 0.031093 0.0313991 0.0274027 0.027669 0.0313991 0.0317039 0.027669 0.0279341 0.0317039 0.0320073 0.0279341 0.0281978 0.0320073 0.0323093 0.0281978 0.0284603 0.0323093 0.0326099 0.0284603 0.0287214 0.0326099 0.032909 0.0287214 0.0289812 0.032909 0.0332066 0.0289812 0.0292395 0.0332066 0.0335026 0.0292395 0.0294964 0.0335026 0.0337969 0.0294964 0.0297518 0.0337969 0.0340896 0.0297518 0.0300056 0.0340896 0.0343806 0.0300056 0.0302578 0.0343806 0.0346698 0.0302578 0.0305085 0.0346698 0.0349571 0.0305085 0.0307574 0.0349571 0.0352426 0.0307574 0.0310046 0.0352426 0.0355262 0.0310046 0.0312501 0.0355262 0.0358078 0.0312501 0.0314938 0.0358078 0.0360875 0.0314938 0.0317357 0.0360875 0.0363653 0.0317357 0.0319759 0.0363653 0.0366411 0.0319759 0.0322143 0.0366411 0.0369151 0.0322143 0.032451 0.0369151 0.0371873 0.032451 0.032686 0.0371873 0.0374578 0.032686 0.0329195 0.0374578 0.0377267 0.0329195 0.0331514 0.0377267 0.0379941 0.0331514 0.0333821 0.0379941 0.0382602 0.0333821 0.0336115 0.0382602 0.0385251 0.0336115 0.0338399 0.0385251 0.0387892 0.0338399 0.0340675 0.0387892 0.0390527 0.0340675 0.0342944 0.0390527 0.0393158 0.0342944 0.034521 0.0393158 0.0395788 0.034521 0.0347474 0.0395788 0.039842 0.0347474 0.034974 0.039842 0.0401057 0.034974 0.035201 0.0401057 0.0403704 0.035201 0.0354288 0.0403704 0.0406363 0.0354288 0.0356576 0.0406363 0.040904 0.0356576 0.0358879 0.040904 0.0411737 0.0358879 0.0361199 0.0411737 0.0414459 0.0361199 0.0363541 0.0414459 0.041721 0.0363541 0.0365907 0.041721 0.0419996 0.0365907 0.0368303 0.0419996 0.0422819 0.0368303 0.0370731 0.0422819 0.0425686 0.0370731 0.0373196 0.0425686 0.0428599 0.037