# vtk DataFile Version 3.0
#This file was generated by the deal.II library on 2021/2/9 at 22:58:41
ASCII
DATASET UNSTRUCTURED_GRID

POINTS 43200 double
0 -0.5 0
0.0166667 -0.5 0
0 -0.483333 0
0.0166667 -0.483333 0
0.0166667 -0.5 0
0.0333333 -0.5 0
0.0166667 -0.483333 0
0.0333333 -0.483333 0
0.0333333 -0.5 0
0.05 -0.5 0
0.0333333 -0.483333 0
0.05 -0.483333 0
0.05 -0.5 0
0.0666667 -0.5 0
0.05 -0.483333 0
0.0666667 -0.483333 0
0.0666667 -0.5 0
0.0833333 -0.5 0
0.0666667 -0.483333 0
0.0833333 -0.483333 0
0.0833333 -0.5 0
0.1 -0.5 0
0.0833333 -0.483333 0
0.1 -0.483333 0
0.1 -0.5 0
0.116667 -0.5 0
0.1 -0.483333 0
0.116667 -0.483333 0
0.116667 -0.5 0
0.133333 -0.5 0
0.116667 -0.483333 0
0.133333 -0.483333 0
0.133333 -0.5 0
0.15 -0.5 0
0.133333 -0.483333 0
0.15 -0.483333 0
0.15 -0.5 0
0.166667 -0.5 0
0.15 -0.483333 0
0.166667 -0.483333 0
0.166667 -0.5 0
0.183333 -0.5 0
0.166667 -0.483333 0
0.183333 -0.483333 0
0.183333 -0.5 0
0.2 -0.5 0
0.183333 -0.483333 0
0.2 -0.483333 0
0.2 -0.5 0
0.216667 -0.5 0
0.2 -0.483333 0
0.216667 -0.483333 0
0.216667 -0.5 0
0.233333 -0.5 0
0.216667 -0.483333 0
0.233333 -0.483333 0
0.233333 -0.5 0
0.25 -0.5 0
0.233333 -0.483333 0
0.25 -0.483333 0
0.25 -0.5 0
0.266667 -0.5 0
0.25 -0.483333 0
0.266667 -0.483333 0
0.266667 -0.5 0
0.283333 -0.5 0
0.266667 -0.483333 0
0.283333 -0.483333 0
0.283333 -0.5 0
0.3 -0.5 0
0.283333 -0.483333 0
0.3 -0.483333 0
0.3 -0.5 0
0.316667 -0.5 0
0.3 -0.483333 0
0.316667 -0.483333 0
0.316667 -0.5 0
0.333333 -0.5 0
0.316667 -0.483333 0
0.333333 -0.483333 0
0.333333 -0.5 0
0.35 -0.5 0
0.333333 -0.483333 0
0.35 -0.483333 0
0.35 -0.5 0
0.366667 -0.5 0
0.35 -0.483333 0
0.366667 -0.483333 0
0.366667 -0.5 0
0.383333 -0.5 0
0.366667 -0.483333 0
0.383333 -0.483333 0
0.383333 -0.5 0
0.4 -0.5 0
0.383333 -0.483333 0
0.4 -0.483333 0
0.4 -0.5 0
0.416667 -0.5 0
0.4 -0.483333 0
0.416667 -0.483333 0
0.416667 -0.5 0
0.433333 -0.5 0
0.416667 -0.483333 0
0.433333 -0.483333 0
0.433333 -0.5 0
0.45 -0.5 0
0.433333 -0.483333 0
0.45 -0.483333 0
0.45 -0.5 0
0.466667 -0.5 0
0.45 -0.483333 0
0.466667 -0.483333 0
0.466667 -0.5 0
0.483333 -0.5 0
0.466667 -0.483333 0
0.483333 -0.483333 0
0.483333 -0.5 0
0.5 -0.5 0
0.483333 -0.483333 0
0.5 -0.483333 0
0.5 -0.5 0
0.516667 -0.5 0
0.5 -0.483333 0
0.516667 -0.483333 0
0.516667 -0.5 0
0.533333 -0.5 0
0.516667 -0.483333 0
0.533333 -0.483333 0
0.533333 -0.5 0
0.55 -0.5 0
0.533333 -0.483333 0
0.55 -0.483333 0
0.55 -0.5 0
0.566667 -0.5 0
0.55 -0.483333 0
0.566667 -0.483333 0
0.566667 -0.5 0
0.583333 -0.5 0
0.566667 -0.483333 0
0.583333 -0.483333 0
0.583333 -0.5 0
0.6 -0.5 0
0.583333 -0.483333 0
0.6 -0.483333 0
0.6 -0.5 0
0.616667 -0.5 0
0.6 -0.483333 0
0.616667 -0.483333 0
0.616667 -0.5 0
0.633333 -0.5 0
0.616667 -0.483333 0
0.633333 -0.483333 0
0.633333 -0.5 0
0.65 -0.5 0
0.633333 -0.483333 0
0.65 -0.483333 0
0.65 -0.5 0
0.666667 -0.5 0
0.65 -0.483333 0
0.666667 -0.483333 0
0.666667 -0.5 0
0.683333 -0.5 0
0.666667 -0.483333 0
0.683333 -0.483333 0
0.683333 -0.5 0
0.7 -0.5 0
0.683333 -0.483333 0
0.7 -0.483333 0
0.7 -0.5 0
0.716667 -0.5 0
0.7 -0.483333 0
0.716667 -0.483333 0
0.716667 -0.5 0
0.733333 -0.5 0
0.716667 -0.483333 0
0.733333 -0.483333 0
0.733333 -0.5 0
0.75 -0.5 0
0.733333 -0.483333 0
0.75 -0.483333 0
0.75 -0.5 0
0.766667 -0.5 0
0.75 -0.483333 0
0.766667 -0.483333 0
0.766667 -0.5 0
0.783333 -0.5 0
0.766667 -0.483333 0
0.783333 -0.483333 0
0.783333 -0.5 0
0.8 -0.5 0
0.783333 -0.483333 0
0.8 -0.483333 0
0.8 -0.5 0
0.816667 -0.5 0
0.8 -0.483333 0
0.816667 -0.483333 0
0.816667 -0.5 0
0.833333 -0.5 0
0.816667 -0.483333 0
0.833333 -0.483333 0
0.833333 -0.5 0
0.85 -0.5 0
0.833333 -0.483333 0
0.85 -0.483333 0
0.85 -0.5 0
0.866667 -0.5 0
0.85 -0.483333 0
0.866667 -0.483333 0
0.866667 -0.5 0
0.883333 -0.5 0
0.866667 -0.483333 0
0.883333 -0.483333 0
0.883333 -0.5 0
0.9 -0.5 0
0.883333 -0.483333 0
0.9 -0.483333 0
0.9 -0.5 0
0.916667 -0.5 0
0.9 -0.483333 0
0.916667 -0.483333 0
0.916667 -0.5 0
0.933333 -0.5 0
0.916667 -0.483333 0
0.933333 -0.483333 0
0.933333 -0.5 0
0.95 -0.5 0
0.933333 -0.483333 0
0.95 -0.483333 0
0.95 -0.5 0
0.966667 -0.5 0
0.95 -0.483333 0
0.966667 -0.483333 0
0.966667 -0.5 0
0.983333 -0.5 0
0.966667 -0.483333 0
0.983333 -0.483333 0
0.983333 -0.5 0
1 -0.5 0
0.983333 -0.483333 0
1 -0.483333 0
1 -0.5 0
1.01667 -0.5 0
1 -0.483333 0
1.01667 -0.483333 0
1.01667 -0.5 0
1.03333 -0.5 0
1.01667 -0.483333 0
1.03333 -0.483333 0
1.03333 -0.5 0
1.05 -0.5 0
1.03333 -0.483333 0
1.05 -0.483333 0
1.05 -0.5 0
1.06667 -0.5 0
1.05 -0.483333 0
1.06667 -0.483333 0
1.06667 -0.5 0
1.08333 -0.5 0
1.06667 -0.483333 0
1.08333 -0.483333 0
1.08333 -0.5 0
1.1 -0.5 0
1.08333 -0.483333 0
1.1 -0.483333 0
1.1 -0.5 0
1.11667 -0.5 0
1.1 -0.483333 0
1.11667 -0.483333 0
1.11667 -0.5 0
1.13333 -0.5 0
1.11667 -0.483333 0
1.13333 -0.483333 0
1.13333 -0.5 0
1.15 -0.5 0
1.13333 -0.483333 0
1.15 -0.483333 0
1.15 -0.5 0
1.16667 -0.5 0
1.15 -0.483333 0
1.16667 -0.483333 0
1.16667 -0.5 0
1.18333 -0.5 0
1.16667 -0.483333 0
1.18333 -0.483333 0
1.18333 -0.5 0
1.2 -0.5 0
1.18333 -0.483333 0
1.2 -0.483333 0
1.2 -0.5 0
1.21667 -0.5 0
1.2 -0.483333 0
1.21667 -0.483333 0
1.21667 -0.5 0
1.23333 -0.5 0
1.21667 -0.483333 0
1.23333 -0.483333 0
1.23333 -0.5 0
1.25 -0.5 0
1.23333 -0.483333 0
1.25 -0.483333 0
1.25 -0.5 0
1.26667 -0.5 0
1.25 -0.483333 0
1.26667 -0.483333 0
1.26667 -0.5 0
1.28333 -0.5 0
1.26667 -0.483333 0
1.28333 -0.483333 0
1.28333 -0.5 0
1.3 -0.5 0
1.28333 -0.483333 0
1.3 -0.483333 0
1.3 -0.5 0
1.31667 -0.5 0
1.3 -0.483333 0
1.31667 -0.483333 0
1.31667 -0.5 0
1.33333 -0.5 0
1.31667 -0.483333 0
1.33333 -0.483333 0
1.33333 -0.5 0
1.35 -0.5 0
1.33333 -0.483333 0
1.35 -0.483333 0
1.35 -0.5 0
1.36667 -0.5 0
1.35 -0.483333 0
1.36667 -0.483333 0
1.36667 -0.5 0
1.38333 -0.5 0
1.36667 -0.483333 0
1.38333 -0.483333 0
1.38333 -0.5 0
1.4 -0.5 0
1.38333 -0.483333 0
1.4 -0.483333 0
1.4 -0.5 0
1.41667 -0.5 0
1.4 -0.483333 0
1.41667 -0.483333 0
1.41667 -0.5 0
1.43333 -0.5 0
1.41667 -0.483333 0
1.43333 -0.483333 0
1.43333 -0.5 0
1.45 -0.5 0
1.43333 -0.483333 0
1.45 -0.483333 0
1.45 -0.5 0
1.46667 -0.5 0
1.45 -0.483333 0
1.46667 -0.483333 0
1.46667 -0.5 0
1.48333 -0.5 0
1.46667 -0.483333 0
1.48333 -0.483333 0
1.48333 -0.5 0
1.5 -0.5 0
1.48333 -0.483333 0
1.5 -0.483333 0
1.5 -0.5 0
1.51667 -0.5 0
1.5 -0.483333 0
1.51667 -0.483333 0
1.51667 -0.5 0
1.53333 -0.5 0
1.51667 -0.483333 0
1.53333 -0.483333 0
1.53333 -0.5 0
1.55 -0.5 0
1.53333 -0.483333 0
1.55 -0.483333 0
1.55 -0.5 0
1.56667 -0.5 0
1.55 -0.483333 0
1.56667 -0.483333 0
1.56667 -0.5 0
1.58333 -0.5 0
1.56667 -0.483333 0
1.58333 -0.483333 0
1.58333 -0.5 0
1.6 -0.5 0
1.58333 -0.483333 0
1.6 -0.483333 0
1.6 -0.5 0
1.61667 -0.5 0
1.6 -0.483333 0
1.61667 -0.483333 0
1.61667 -0.5 0
1.63333 -0.5 0
1.61667 -0.483333 0
1.63333 -0.483333 0
1.63333 -0.5 0
1.65 -0.5 0
1.63333 -0.483333 0
1.65 -0.483333 0
1.65 -0.5 0
1.66667 -0.5 0
1.65 -0.483333 0
1.66667 -0.483333 0
1.66667 -0.5 0
1.68333 -0.5 0
1.66667 -0.483333 0
1.68333 -0.483333 0
1.68333 -0.5 0
1.7 -0.5 0
1.68333 -0.483333 0
1.7 -0.483333 0
1.7 -0.5 0
1.71667 -0.5 0
1.7 -0.483333 0
1.71667 -0.483333 0
1.71667 -0.5 0
1.73333 -0.5 0
1.71667 -0.483333 0
1.73333 -0.483333 0
1.73333 -0.5 0
1.75 -0.5 0
1.73333 -0.483333 0
1.75 -0.483333 0
1.75 -0.5 0
1.76667 -0.5 0
1.75 -0.483333 0
1.76667 -0.483333 0
1.76667 -0.5 0
1.78333 -0.5 0
1.76667 -0.483333 0
1.78333 -0.483333 0
1.78333 -0.5 0
1.8 -0.5 0
1.78333 -0.483333 0
1.8 -0.483333 0
1.8 -0.5 0
1.81667 -0.5 0
1.8 -0.483333 0
1.81667 -0.483333 0
1.81667 -0.5 0
1.83333 -0.5 0
1.81667 -0.483333 0
1.83333 -0.483333 0
1.83333 -0.5 0
1.85 -0.5 0
1.83333 -0.483333 0
1.85 -0.483333 0
1.85 -0.5 0
1.86667 -0.5 0
1.85 -0.483333 0
1.86667 -0.483333 0
1.86667 -0.5 0
1.88333 -0.5 0
1.86667 -0.483333 0
1.88333 -0.483333 0
1.88333 -0.5 0
1.9 -0.5 0
1.88333 -0.483333 0
1.9 -0.483333 0
1.9 -0.5 0
1.91667 -0.5 0
1.9 -0.483333 0
1.91667 -0.483333 0
1.91667 -0.5 0
1.93333 -0.5 0
1.91667 -0.483333 0
1.93333 -0.483333 0
1.93333 -0.5 0
1.95 -0.5 0
1.93333 -0.483333 0
1.95 -0.483333 0
1.95 -0.5 0
1.96667 -0.5 0
1.95 -0.483333 0
1.96667 -0.483333 0
1.96667 -0.5 0
1.98333 -0.5 0
1.96667 -0.483333 0
1.98333 -0.483333 0
1.98333 -0.5 0
2 -0.5 0
1.98333 -0.483333 0
2 -0.483333 0
2 -0.5 0
2.01667 -0.5 0
2 -0.483333 0
2.01667 -0.483333 0
2.01667 -0.5 0
2.03333 -0.5 0
2.01667 -0.483333 0
2.03333 -0.483333 0
2.03333 -0.5 0
2.05 -0.5 0
2.03333 -0.483333 0
2.05 -0.483333 0
2.05 -0.5 0
2.06667 -0.5 0
2.05 -0.483333 0
2.06667 -0.483333 0
2.06667 -0.5 0
2.08333 -0.5 0
2.06667 -0.483333 0
2.08333 -0.483333 0
2.08333 -0.5 0
2.1 -0.5 0
2.08333 -0.483333 0
2.1 -0.483333 0
2.1 -0.5 0
2.11667 -0.5 0
2.1 -0.483333 0
2.11667 -0.483333 0
2.11667 -0.5 0
2.13333 -0.5 0
2.11667 -0.483333 0
2.13333 -0.483333 0
2.13333 -0.5 0
2.15 -0.5 0
2.13333 -0.483333 0
2.15 -0.483333 0
2.15 -0.5 0
2.16667 -0.5 0
2.15 -0.483333 0
2.16667 -0.483333 0
2.16667 -0.5 0
2.18333 -0.5 0
2.16667 -0.483333 0
2.18333 -0.483333 0
2.18333 -0.5 0
2.2 -0.5 0
2.18333 -0.483333 0
2.2 -0.483333 0
2.2 -0.5 0
2.21667 -0.5 0
2.2 -0.483333 0
2.21667 -0.483333 0
2.21667 -0.5 0
2.23333 -0.5 0
2.21667 -0.483333 0
2.23333 -0.483333 0
2.23333 -0.5 0
2.25 -0.5 0
2.23333 -0.483333 0
2.25 -0.483333 0
2.25 -0.5 0
2.26667 -0.5 0
2.25 -0.483333 0
2.26667 -0.483333 0
2.26667 -0.5 0
2.28333 -0.5 0
2.26667 -0.483333 0
2.28333 -0.483333 0
2.28333 -0.5 0
2.3 -0.5 0
2.28333 -0.483333 0
2.3 -0.483333 0
2.3 -0.5 0
2.31667 -0.5 0
2.3 -0.483333 0
2.31667 -0.483333 0
2.31667 -0.5 0
2.33333 -0.5 0
2.31667 -0.483333 0
2.33333 -0.483333 0
2.33333 -0.5 0
2.35 -0.5 0
2.33333 -0.483333 0
2.35 -0.483333 0
2.35 -0.5 0
2.36667 -0.5 0
2.35 -0.483333 0
2.36667 -0.483333 0
2.36667 -0.5 0
2.38333 -0.5 0
2.36667 -0.483333 0
2.38333 -0.483333 0
2.38333 -0.5 0
2.4 -0.5 0
2.38333 -0.483333 0
2.4 -0.483333 0
2.4 -0.5 0
2.41667 -0.5 0
2.4 -0.483333 0
2.41667 -0.483333 0
2.41667 -0.5 0
2.43333 -0.5 0
2.41667 -0.483333 0
2.43333 -0.483333 0
2.43333 -0.5 0
2.45 -0.5 0
2.43333 -0.483333 0
2.45 -0.483333 0
2.45 -0.5 0
2.46667 -0.5 0
2.45 -0.483333 0
2.46667 -0.483333 0
2.46667 -0.5 0
[...]
POINT_DATA 43200
SCALARS x1_displacement double 1
LOOKUP_TABLE default
0 -0.000251197 0 -3.32023e-05 -0.000251197 -0.000350802 -3.32023e-05 -5.21112e-05 -0.000350802 -0.000336557 -5.21112e-05 -1.39603e-05 -0.000336557 -0.000238415 -1.39603e-05 8.10914e-05 -0.000238415 -7.15229e-05 8.10914e-05 0.000228314 -7.15229e-05 0.000153098 0.000228314 0.000422257 0.000153098 0.000427125 0.000422257 0.000657774 0.000427125 0.000743822 0.000657774 0.000930206 0.000743822 0.00109756 0.000930206 0.00123536 0.00109756 0.0014835 0.00123536 0.00156944 0.0014835 0.00189745 0.00156944 0.00192905 0.00189745 0.00233568 0.00192905 0.00231108 0.00233568 0.00279489 0.00231108 0.0027127 0.00279489 0.00327212 0.0027127 0.00313136 0.00327212 0.0037647 0.00313136 0.00356472 0.0037647 0.00427022 0.00356472 0.00401063 0.00427022 0.00478653 0.00401063 0.00446717 0.00478653 0.00531168 0.00446717 0.00493255 0.00531168 0.00584391 0.00493255 0.00540519 0.00584391 0.00638164 0.00540519 0.00588363 0.00638164 0.00692346 0.00588363 0.00636656 0.00692346 0.00746811 0.00636656 0.00685282 0.00746811 0.00801448 0.00685282 0.00734134 0.00801448 0.00856158 0.00734134 0.0078312 0.00856158 0.00910854 0.0078312 0.00832157 0.00910854 0.00965461 0.00832157 0.00881173 0.00965461 0.0101991 0.00881173 0.00930103 0.0101991 0.0107416 0.00930103 0.00978893 0.0107416 0.0112814 0.00978893 0.010275 0.0112814 0.0118183 0.010275 0.0107587 0.0118183 0.0123518 0.0107587 0.0112399 0.0123518 0.0128818 0.0112399 0.0117181 0.0128818 0.0134081 0.0117181 0.0121933 0.0134081 0.0139304 0.0121933 0.0126652 0.0139304 0.0144487 0.0126652 0.0131336 0.0144487 0.0149629 0.0131336 0.0135986 0.0149629 0.0154729 0.0135986 0.01406 0.0154729 0.0159788 0.01406 0.0145178 0.0159788 0.0164807 0.0145178 0.014972 0.0164807 0.0169784 0.014972 0.0154227 0.0169784 0.0174722 0.0154227 0.0158698 0.0174722 0.017962 0.0158698 0.0163134 0.017962 0.018448 0.0163134 0.0167536 0.018448 0.0189303 0.0167536 0.0171905 0.0189303 0.0194091 0.0171905 0.0176241 0.0194091 0.0198843 0.0176241 0.0180546 0.0198843 0.0203562 0.0180546 0.0184821 0.0203562 0.0208249 0.0184821 0.0189066 0.0208249 0.0212904 0.0189066 0.0193283 0.0212904 0.021753 0.0193283 0.0197473 0.021753 0.0222128 0.0197473 0.0201636 0.0222128 0.0226698 0.0201636 0.0205774 0.0226698 0.0231243 0.0205774 0.0209889 0.0231243 0.0235763 0.0209889 0.021398 0.0235763 0.0240259 0.021398 0.0218049 0.0240259 0.0244732 0.0218049 0.0222097 0.0244732 0.0249184 0.0222097 0.0226125 0.0249184 0.0253615 0.0226125 0.0230133 0.0253615 0.0258026 0.0230133 0.0234123 0.0258026 0.0262419 0.0234123 0.0238095 0.0262419 0.0266793 0.0238095 0.0242049 0.0266793 0.027115 0.0242049 0.0245988 0.027115 0.027549 0.0245988 0.024991 0.027549 0.0279814 0.024991 0.0253817 0.0279814 0.0284122 0.0253817 0.0257708 0.0284122 0.0288414 0.0257708 0.0261585 0.0288414 0.0292692 0.0261585 0.0265448 0.0292692 0.0296954 0.0265448 0.0269297 0.0296954 0.0301203 0.0269297 0.0273132 0.0301203 0.0305437 0.0273132 0.0276953 0.0305437 0.0309657 0.0276953 0.0280761 0.0309657 0.0313863 0.0280761 0.0284555 0.0313863 0.0318055 0.0284555 0.0288336 0.0318055 0.0322233 0.0288336 0.0292104 0.0322233 0.0326397 0.0292104 0.0295858 0.0326397 0.0330546 0.0295858 0.0299599 0.0330546 0.0334682 0.0299599 0.0303327 0.0334682 0.0338803 0.0303327 0.0307041 0.0338803 0.0342909 0.0307041 0.0310741 0.0342909 0.0347 0.0310741 0.0314427 0.0347 0.0351077 0.0314427 0.0318099 0.0351077 0.0355138 0.0318099 0.0321757 0.0355138 0.0359185 0.0321757 0.03254 0.0359185 0.0363215 0.03254 0.0329029 0.0363215 0.036723 0.0329029 0.0332644 0.036723 0.037123 0.0332644 0.0336243 0.037123 0.0375213 0.0336243 0.0339828 0.0375213 0.0379181 0.0339828 0.0343398 0.0379181 0.0383132 0.0343398 0.0346953 0.0383132 0.0387068 0.0346953 0.0350493 0.0387068 0.0390988 0.0350493 0.0354019 0.0390988 0.0394892 0.0354019 0.0357529 0.0394892 0.0398781 0.0357529 0.0361025 0.0398781 0.0402654 0.0361025 0.0364507 0.0402654 0.0406511 0.0364507 0.0367974 0.0406511 0.0410354 0.0367974 0.0371426 0.0410354 0.0414182 0.0371426 0.0374865 0.0414182 0.0417995 0.0374865 0.037829 0.0417995 0.0421794 0.037829 0.0381701 0.0421794 0.0425578 0.0381701 0.0385098 0.0425578 0.0429349 0.0385098 0.0388482 0.0429349 0.0433105 0.0388482 0.0391853 0.0433105 0.0436847 0.0391853 0.039521 0.0436847 0.0440575 0.039521 0.0398554 0.0440575 0.0444288 0.0398554 0.0401884 0.0444288 0.0447988 0.0401884 0.0405201 0.0447988 0.0451672 0.0405201 0.0408505 0.0451672 0.0455343 0.0408505 0.0411795 0.0455343 0.0458998 0.0411795 0.0415072 0.0458998 0.0462639 0.0415072 0.0418335 0.0462639 0.0466265 0.0418335 0.0421585 0.0466265 0.0469876 0.0421585 0.0424823 0.0469876 0.0473474 0.0424823 0.0428048 0.0473474 0.0477059 0.0428048 0.0431262 0.0477059 0.0480631 0.0431262 0.0434465 0.0480631 0.0484192 0.0434465 0.0437659 0.0484192 0.0487744 0.0437659 0.0440845 0.0487744 0.0491289 0.0440845 0.0444026 0.0491289 0.0494829 0.0444026 0.0447203 0.0494829 0.0498367 0.0447203 0.045038 0.0498367 0.0501907 0.045038 0.0453559 0.0501907 0.0505452 0.0453559 0.0456743 0.0505452 0.0509006 0.0456743 0.0459936 0.0509006 0.0512574 0.0459936 0.0463143 0.0512574 0.0516161 0.0463143 0.0466366 0.0516161 0.0519772 0.0466366 0.0469612 0.0519772 0.0523411 0.0469612 0.0472884 0.0523411 0.0527086 0.0472884 0.0476188 0.0527086 0.0530801 0.0476188 0.0479529 0.0530801 0.0534564 0.0479529 0.0482911 0.0534564 0.053838 0.0482911 0.0486341 0.053838 0.0542255 0.0486341 0.0489824 0.0542255 0.0546197 0.0489824 0.0493364 0.0546197 0.055021 0.0493364 0.0496968 0.055021 0.0554302 0.0496968 0.050064 0.0554302 0.0558478 0.050064 0.0504386 0.0558478 0.0562745 0.0504386 0.0508209 0.0562745 0.0567106 0.0508209 0.0512113 0.0567106 0.0571566 0.0512113 0.0516103 0.0571566 0.057613 0.0516103 0.052018 0.057613 0.0580799 0.052018 0.0524347 0.0580799 0.0585576 0.0524347 0.0528604 0.0585576 0.0590461 0.0528604 0.0532951 0.0590461 0.0595452 0.0532951 0.0537385 0.0595452 0.0600545 0.0537385 0.0541903 0.0600545 0.0605736 0.0541903 0.0546498 0.0605736 0.0611014 0.0546498 0.0551164 0.0611014 0.061637 0.0551164 0.0555889 0.061637 0.0621788 0.0555889 0.0560661 0.0621788 0.062725 0.0560661 0.0565463 0.062725 0.0632735 0.0565463 0.0570276 0.0632735 0.0638215 0.0570276 0.0575079 0.0638215 0.0643662 0.0575079 0.0579847 0.0643662 0.0649042 0.0579847 0.0584552 0.0649042 0.0654319 0.0584552 0.0589165 0.0654319 0.0659456 0.0589165 0.0593656 0.0659456 0.0664417 0.0593656 0.0597995 0.0664417 0.0669166 0.0597995 0.0602153 0.0669166 0.0673674 0.0602153 0.0606106 0.0673674 0.0677919 0.0606106 0.0609833 0.0677919 0.0681891 0.0609833 0.0613324 0.0681891 0.068559 0.0613324 0.0616573 0.068559 0.068903 0.0616573 0.0619586 0.068903 0.0692235 0.0619586 0.0622374 0.0692235 0.0695233 0.0622374 0.062495 0.0695233 0.0698055 0.062495 0.0627329 0.0698055 0.0700732 0.0627329 0.0629522 0.0700732 0.0703304 0.0629522 0.0631535 0.0703304 0.0705814 0.0631535 0.0633379 0.0705814 0.0708314 0.0633379 0.0635065 0.0708314 0.0710825 0.0635065 0.0636602 0.0710825 0.0713283 0.0636602 0.0637977 0.0713283 0.0715489 0.0637977 0.0639115 0.0715489 0.0717142 0.0639115 0.0639873 0.0717142 0.0718007 0.0639873 0.064013 0.0718007 0.0718116 0.064013 0.0639944 0.0718116 0.0717783 0.0639944 0.0639557 0.0717783 0.0717402 0.0639557 0.0639218 0.0717402 0.0717211 0.0639218 0.0639056 0.0717211 0.0717177 0.0639056 0.0639052 0 -3.32023e-05 0 2.63862e-05 -3.32023e-05 -5.21112e-05 2.63862e-05 8.19042e-05 -5.21112e-05 -1.39603e-05 8.19042e-05 0.000158644 -1.39603e-05 8.10914e-05 0.000158644 0.000267149 8.10914e-05 0.000228314 0.000267149 0.000409972 0.000228314 0.000422257 0.000409972 0.000586767 0.000422257 0.000657774 0.000586767 0.000795754 0.000657774 0.000930206 0.000795754 0.00103458 0.000930206 0.00123536 0.00103458 0.00130069 0.00123536 0.00156944 0.00130069 0.00159152 0.00156944 0.00192905 0.00159152 0.00190456 0.00192905 0.00231108 0.00190456 0.00223744 0.00231108 0.0027127 0.00223744 0.00258791 0.0027127 0.00313136 0.00258791 0.00295386 0.00313136 0.00356472 0.00295386 0.00333333 0.00356472 0.00401063 0.00333333 0.00372448 0.00401063 0.00446717 0.00372448 0.00412565 0.00446717 0.00493255 0.00412565 0.00453528 0.00493255 0.00540519 0.00453528 0.00495194 0.00540519 0.00588363 0.00495194 0.00537435 0.00588363 0.00636656 0.00537435 0.00580133 0.00636656 0.00685282 0.00580133 0.00623181 0.00685282 0.00734134 0.00623181 0.00666482 0.00734134 0.0078312 0.00666482 0.00709951 0.0078312 0.00832157 0.00709951 0.0075351 0.00832157 0.00881173 0.0075351 0.00797093 0.00881173 0.00930103 0.00797093 0.00840638 0.00930103 0.00978893 0.00840638 0.00884094 0.00978893 0.010275 0.00884094 0.00927416 0.010275 0.0107587 0.00927416 0.00970564 0.0107587 0.0112399 0.00970564 0.0101351 0.0112399 0.0117181 0.0101351 0.0105621 0.0117181 0.0121933 0.0105621 0.0109867 0.0121933 0.0126652 0.0109867 0.0114084 0.0126652 0.0131336 0.0114084 0.0118273 0.0131336 0.0135986 0.0118273 0.0122432 0.0135986 0.01406 0.0122432 0.012656 0.01406 0.0145178 0.012656 0.0130657 0.0145178 0.014972 0.0130657 0.0134723 0.014972 0.0154227 0.0134723 0.0138757 0.0154227 0.0158698 0.0138757 0.0142761 0.0158698 0.0163134 0.0142761 0.0146733 0.0163134 0.0167536 0.0146733 0.0150675 0.0167536 0.0171905 0.0150675 0.0154587 0.0171905 0.0176241 0.0154587 0.0158471 0.0176241 0.0180546 0.0158471 0.0162326 0.0180546 0.0184821 0.0162326 0.0166153 0.0184821 0.0189066 0.0166153 0.0169954 0.0189066 0.0193283 0.0169954 0.0173729 0.0193283 0.0197473 0.0173729 0.017748 0.0197473 0.0201636 0.017748 0.0181206 0.0201636 0.0205774 0.0181206 0.018491 0.0205774 0.0209889 0.018491 0.0188592 0.0209889 0.021398 0.0188592 0.0192252 0.021398 0.0218049 0.0192252 0.0195892 0.0218049 0.0222097 0.0195892 0.0199512 0.0222097 0.0226125 0.0199512 0.0203114 0.0226125 0.0230133 0.0203114 0.0206698 0.0230133 0.0234123 0.0206698 0.0210264 0.0234123 0.0238095 0.0210264 0.0213814 0.0238095 0.0242049 0.0213814 0.0217347 0.0242049 0.0245988 0.0217347 0.0220865 0.0245988 0.024991 0.0220865 0.0224368 0.024991 0.0253817 0.0224368 0.0227857 0.0253817 0.0257708 0.0227857 0.0231331 0.0257708 0.0261585 0.0231331 0.0234792 0.0261585 0.0265448 0.0234792 0.0238239 0.0265448 0.0269297 0.0238239 0.0241673 0.0269297 0.0273132 0.0241673 0.0245094 0.0273132 0.0276953 0.0245094 0.0248502 0.0276953 0.0280761 0.0248502 0.0251898 0.0280761 0.0284555 0.0251898 0.0255281 0.0284555 0.0288336 0.0255281 0.0258651 0.0288336 0.0292104 0.0258651 0.0262009 0.0292104 0.0295858 0.0262009 0.0265354 0.0295858 0.0299599 0.0265354 0.0268686 0.0299599 0.0303327 0.0268686 0.0272006 0.0303327 0.0307041 0.0272006 0.0275313 0.0307041 0.0310741 0.0275313 0.0278607 0.0310741 0.0314427 0.0278607 0.0281888 0.0314427 0.0318099 0.0281888 0.0285156 0.0318099 0.0321757 0.0285156 0.0288411 0.0321757 0.03254 0.0288411 0.0291652 0.03254 0.0329029 0.0291652 0.029488 0.0329029 0.0332644 0.029488 0.0298094 0.0332644 0.0336243 0.0298094 0.0301294 0.0336243 0.0339828 0.0301294 0.030448 0.0339828 0.0343398 0.030448 0.0307653 0.0343398 0.0346953 0.0307653 0.0310811 0.0346953 0.0350493 0.0310811 0.0313956 0.0350493 0.0354019 0.0313956 0.0317086 0.0354019 0.0357529 0.0317086 0.0320203 0.0357529 0.0361025 0.0320203 0.0323306 0.0361025 0.0364507 0.0323306 0.0326396 0.0364507 0.0367974 0.0326396 0.0329471 0.0367974 0.0371426 0.0329471 0.0332534 0.0371426 0.0374865 0.0332534 0.0335583 0.0374865 0.037829 0.0335583 0.0338619 0.037829 0.0381701 0.0338619 0.0341642 0.0381701 0.0385098 0.0341642 0.0344652 0.0385098 0.0388482 0.0344652 0.034765 0.0388482 0.0391853 0.034765 0.0350634 0.0391853 0.039521 0.0350634 0.0353607 0.039521 0.0398554 0.0353607 0.0356567 0.0398554 0.0401884 0.0356567 0.0359514 0.0401884 0.0405201 0.0359514 0.0362449 0.0405201 0.0408505 0.0362449 0.0365371 0.0408505 0.0411795 0.0365371 0.0368281 0.0411795 0.0415072 0.0368281 0.0371179 0.0415072 0.0418335 0.0371179 0.0374064 0.0418335 0.0421585 0.0374064 0.0376938 0.0421585 0.0424823 0.0376938 0.0379799 0.0424823 0.0428048 0.0379799 0.038265 0.0428048 0.0431262 0.038265 0.038549 0.0431262 0.0434465 0.038549 0.0388321 0.0434465 0.0437659 0.0388321 0.0391144 0.0437659 0.0440845 0.0391144 0.039396 0.0440845 0.0444026 0.039396 0.0396771 0.0444026 0.0447203 0.0396771 0.0399579 0.0447203 0.045038 0.0399579 0.0402387 0.045038 0.0453559 0.0402387 0.0405196 0.0453559 0.0456743 0.0405196 0.0408011 0.0456743 0.0459936 0.0408011 0.0410833 0.0459936 0.0463143 0.0410833 0.0413668 0.0463143 0.0466366 0.0413668 0.0416517 0.0466366 0.0469612 0.0416517 0.0419386 0.0469612 0.0472884 0.0419386 0.0422279 0.0472884 0.0476188 0.0422279 0.0425199 0.0476188 0.0479529 0.0425199 0.0428152 0.0479529 0.0482911 0.0428152 0.0431141 0.0482911 0.0486341 0.0431141 0.0434171 0.0486341 0.0489824 0.0434171 0.0437248 0.0489824 0.0493364 0.0437248 0.0440374 0.0493364 0.0496968 0.0440374 0.0443556 0.0496968 0.050064 0.0443556 0.0446796 0.050064 0.0504386 0.0446796 0.0450099 0.0504386 0.0508209 0.0450099 0.0453469 0.0508209 0.0512113 0.0453469 0.0456909 0.0512113 0.0516103 0.0456909 0.0460422 0.0516103 0.052018 0.0460422 0.0464009 0.052018 0.0524347 0.0464009 0.0467671 0.0524347 0.0528604 0.0467671 0.047141 0.0528604 0.0532951 0.047141 0.0475224 0.0532951 0.0537385 0.0475224 0.047911 0.0537385 0.0541903 0.047911 0.0483067 0.0541903 0.0546498 0.0483067 0.0487088 0.0546498 0.0551164 0.0487088 0.0491167 0.0551164 0.0555889 0.0491167 0.0495294 0.0555889 0.0560661 0.0495294 0.0499459 0.0560661 0.0565463 0.0499459 0.0503648 0.0565463 0.0570276 0.0503648 0.0507846 0.0570276 0.0575079 0.0507846 0.0512033 0.0575079 0.0579847 0.0512033 0.0516189 0.0579847 0.0584552 0.0516189 0.0520291 0.0584552 0.0589165 0.0520291 0.0524315 0.0589165 0.0593656 0.0524315 0.0528233 0.0593656 0.0597995 0.0528233 0.053202 0.0597995 0.0602153 0.053202 0.0535647 0.0602153 0.0606106 0.0535647 0.0539092 0.0606106 0.0609833 0.0539092 0.0542332 0.0609833 0.0613324 0.0542332 0.0545351 0.0613324 0.0616573 0.0545351 0.0548141 0.0616573 0.0619586 0.0548141 0.0550701 0.0619586 0.0622374 0.0550701 0.0553037 0.0622374 0.062495 0.0553037 0.0555157 0.062495 0.0627329 0.0555157 0.0557063 0.0627329 0.0629522 0.0557063 0.0558746 0.0629522 0.0631535 0.0558746 0.0560182 0.0631535 0.0633379 0.0560182 0.0561348 0.0633379 0.0635065 0.0561348 0.0562245 0.0635065 0.0636602 0.0562245 0.0562901 0.0636602 0.0637977 0.0562901 0.0563361 0.0637977 0.0639115 0.0563361 0.0563661 0.0639115 0.0639873 0.0563661 0.0563653 0.0639873 0.064013 0.0563653 0.0563127 0.064013 0.0639944 0.0563127 0.0562204 0.0639944 0.0639557 0.0562204 0.0561321 0.0639557 0.0639218 0.0561321 0.0560805 0.0639218 0.0639056 0.0560805 0.0560668 0.0639056 0.0639052 0.0560668 0.0560782 0 2.63862e-05 0 5.22379e-05 2.63862e-05 8.19042e-05 5.22379e-05 0.000134662 8.19042e-05 0.000158644 0.000134662 0.000236825 0.000158644 0.000267149 0.000236825 0.000357801 0.000267149 0.000409972 0.000357801 0.000500576 0.000409972 0.000586767 0.000500576 0.00066661 0.000586767 0.000795754 0.00066661 0.000856126 0.000795754 0.00103458 0.000856126 0.00106847 0.00103458 0.00130069 0.00106847 0.00130245 0.00130069 0.00159152 0.00130245 0.0015566 0.00159152 0.00190456 0.0015566 0.00182928 0.00190456 0.00223744 0.00182928 0.00211881 0.00223744 0.00258791 0.00211881 0.00242352 0.00258791 0.00295386 0.00242352 0.00274177 0.00295386 0.00333333 0.00274177 0.00307197 0.00333333 0.00372448 0.00307197 0.00341264 0.00372448 0.00412565 0.00341264 0.00376236 0.00412565 0.00453528 0.00376236 0.00411982 0.00453528 0.00495194 0.00411982 0.00448379 0.00495194 0.00537435 0.00448379 0.00485316 0.00537435 0.00580133 0.00485316 0.00522688 0.00580133 0.00623181 0.00522688 0.00560401 0.00623181 0.00666482 0.00560401 0.00598369 0.00666482 0.00709951 0.00598369 0.00636515 0.00709951 0.0075351 0.00636515 0.0067477 0.0075351 0.00797093 0.0067477 0.00713072 0.00797093 0.00840638 0.00713072 0.00751365 0.00840638 0.00884094 0.00751365 0.00789603 0.00884094 0.00927416 0.00789603 0.00827743 0.00927416 0.00970564 0.00827743 0.00865748 0.00970564 0.0101351 0.00865748 0.00903588 0.0101351 0.0105621 0.00903588 0.00941236 0.0105621 0.0109867 0.00941236 0.00978671 0.0109867 0.0114084 0.00978671 0.0101587 0.0114084 0.0118273 0.0101587 0.0105283 0.0118273 0.0122432 0.0105283 0.0108953 0.0122432 0.012656 0.0108953 0.0112597 0.012656 0.0130657 0.0112597 0.0116214 0.0130657 0.0134723 0.0116214 0.0119803 0.0134723 0.0138757 0.0119803 0.0123365 0.0138757 0.0142761 0.0123365 0.01269 0.0142761 0.0146733 0.01269 0.0130407 0.0146733 0.0150675 0.0130407 0.0133888 0.0150675 0.0154587 0.0133888 0.0137342 0.0154587 0.0158471 0.0137342 0.014077 0.0158471 0.0162326 0.014077 0.0144173 0.0162326 0.0166153 0.0144173 0.0147552 0.0166153 0.0169954 0.0147552 0.0150906 0.0169954 0.0173729 0.0150906 0.0154238 0.0173729 0.017748 0.0154238 0.0157547 0.017748 0.0181206 0.0157547 0.0160834 0.0181206 0.018491 0.0160834 0.0164101 0.018491 0.0188592 0.0164101 0.0167348 0.0188592 0.0192252 0.0167348 0.0170575 0.0192252 0.0195892 0.0170575 0.0173784 0.0195892 0.0199512 0.0173784 0.0176975 0.0199512 0.0203114 0.0176975 0.0180148 0.0203114 0.0206698 0.0180148 0.0183305 0.0206698 0.0210264 0.0183305 0.0186447 0.0210264 0.0213814 0.0186447 0.0189573 0.0213814 0.0217347 0.0189573 0.0192684 0.0217347 0.0220865 0.0192684 0.019578 0.0220865 0.0224368 0.019578 0.0198863 0.0224368 0.0227857 0.0198863 0.0201933 0.0227857 0.0231331 0.0201933 0.0204989 0.0231331 0.0234792 0.0204989 0.0208033 0.0234792 0.0238239 0.0208033 0.0211064 0.0238239 0.0241673 0.0211064 0.0214082 0.0241673 0.0245094 0.0214082 0.0217089 0.0245094 0.0248502 0.0217089 0.0220084 0.0248502 0.0251898 0.0220084 0.0223067 0.0251898 0.0255281 0.0223067 0.0226038 0.0255281 0.0258651 0.0226038 0.0228997 0.0258651 0.0262009 0.0228997 0.0231945 0.0262009 0.0265354 0.0231945 0.0234881 0.0265354 0.0268686 0.0234881 0.0237805 0.0268686 0.0272006 0.0237805 0.0240717 0.0272006 0.0275313 0.0240717 0.0243618 0.0275313 0.0278607 0.0243618 0.0246506 0.0278607 0.0281888 0.0246506 0.0249383 0.0281888 0.0285156 0.0249383 0.0252247 0.0285156 0.0288411 0.0252247 0.0255098 0.0288411 0.0291652 0.0255098 0.0257938 0.0291652 0.029488 0.0257938 0.0260764 0.029488 0.0298094 0.0260764 0.0263578 0.0298094 0.0301294 0.0263578 0.0266379 0.0301294 0.030448 0.0266379 0.0269167 0.030448 0.0307653 0.0269167 0.0271942 0.0307653 0.0310811 0.0271942 0.0274704 0.0310811 0.0313956 0.0274704 0.0277453 0.0313956 0.0317086 0.0277453 0.0280188 0.0317086 0.0320203 0.0280188 0.0282911 0.0320203 0.0323306 0.0282911 0.0285621 0.0323306 0.0326396 0.0285621 0.0288318 0.0326396 0.0329471 0.0288318 0.0291002 0.0329471 0.0332534 0.0291002 0.0293674 0.0332534 0.0335583 0.0293674 0.0296333 0.0335583 0.0338619 0.0296333 0.029898 0.0338619 0.0341642 0.029898 0.0301615 0.0341642 0.0344652 0.0301615 0.0304238 0.0344652 0.034765 0.0304238 0.0306848 0.034765 0.0350634 0.0306848 0.0309448 0.0350634 0.0353607 0.0309448 0.0312035 0.0353607 0.0356567 0.0312035 0.0314611 0.0356567 0.0359514 0.0314611 0.0317175 0.0359514 0.0362449 0.0317175 0.0319727 0.0362449 0.0365371 0.0319727 0.0322268 0.0365371 0.0368281 0.0322268 0.0324798 0.0368281 0.0371179 0.0324798 0.0327316 0.0371179 0.0374064 0.0327316 0.0329822 0.0374064 0.0376938 0.0329822 0.0332318 0.0376938 0.0379799 0.0332318 0.0334803 0.0379799 0.038265 0.0334803 0.0337277 0.038265 0.038549 0.0337277 0.0339742 0.038549 0.0388321 0.0339742 0.0342197 0.0388321 0.0391144 0.0342197 0.0344645 0.0391144 0.039396 0.0344645 0.0347086 0.039396 0.0396771 0.0347086 0.0349523 0.0396771 0.0399579 0.0349523 0.0351956 0.0399579 0.0402387 0.0351956 0.0354387 0.0402387 0.0405196 0.0354387 0.035682 0.0405196 0.0408011 0.035682 0.0359257 0.0408011 0.0410833 0.0359257 0.03617 0.0410833 0.0413668 0.03617 0.0364153 0.0413668 0.0416517 0.0364153 0.0366619 0.0416517 0.0419386 0.0366619 0.0369101 0.0419386 0.0422279 0.0369101 0.0371603 0.0422279 0.0425199 0.0371603 0.0374129 0.0425199 0.0428152 0.0374129 0.0376683 0.0428152 0.0431141 0.0376683 0.0379267 0.0431141 0.0434171 0.0379267 0.0381887 0.0434171 0.0437248 0.0381887 0.0384546 0.0437248