# vtk DataFile Version 3.0
#This file was generated by the deal.II library on 2021/2/9 at 22:54:55
ASCII
DATASET UNSTRUCTURED_GRID

POINTS 43200 double
0 -0.5 0
0.0166667 -0.5 0
0 -0.483333 0
0.0166667 -0.483333 0
0.0166667 -0.5 0
0.0333333 -0.5 0
0.0166667 -0.483333 0
0.0333333 -0.483333 0
0.0333333 -0.5 0
0.05 -0.5 0
0.0333333 -0.483333 0
0.05 -0.483333 0
0.05 -0.5 0
0.0666667 -0.5 0
0.05 -0.483333 0
0.0666667 -0.483333 0
0.0666667 -0.5 0
0.0833333 -0.5 0
0.0666667 -0.483333 0
0.0833333 -0.483333 0
0.0833333 -0.5 0
0.1 -0.5 0
0.0833333 -0.483333 0
0.1 -0.483333 0
0.1 -0.5 0
0.116667 -0.5 0
0.1 -0.483333 0
0.116667 -0.483333 0
0.116667 -0.5 0
0.133333 -0.5 0
0.116667 -0.483333 0
0.133333 -0.483333 0
0.133333 -0.5 0
0.15 -0.5 0
0.133333 -0.483333 0
0.15 -0.483333 0
0.15 -0.5 0
0.166667 -0.5 0
0.15 -0.483333 0
0.166667 -0.483333 0
0.166667 -0.5 0
0.183333 -0.5 0
0.166667 -0.483333 0
0.183333 -0.483333 0
0.183333 -0.5 0
0.2 -0.5 0
0.183333 -0.483333 0
0.2 -0.483333 0
0.2 -0.5 0
0.216667 -0.5 0
0.2 -0.483333 0
0.216667 -0.483333 0
0.216667 -0.5 0
0.233333 -0.5 0
0.216667 -0.483333 0
0.233333 -0.483333 0
0.233333 -0.5 0
0.25 -0.5 0
0.233333 -0.483333 0
0.25 -0.483333 0
0.25 -0.5 0
0.266667 -0.5 0
0.25 -0.483333 0
0.266667 -0.483333 0
0.266667 -0.5 0
0.283333 -0.5 0
0.266667 -0.483333 0
0.283333 -0.483333 0
0.283333 -0.5 0
0.3 -0.5 0
0.283333 -0.483333 0
0.3 -0.483333 0
0.3 -0.5 0
0.316667 -0.5 0
0.3 -0.483333 0
0.316667 -0.483333 0
0.316667 -0.5 0
0.333333 -0.5 0
0.316667 -0.483333 0
0.333333 -0.483333 0
0.333333 -0.5 0
0.35 -0.5 0
0.333333 -0.483333 0
0.35 -0.483333 0
0.35 -0.5 0
0.366667 -0.5 0
0.35 -0.483333 0
0.366667 -0.483333 0
0.366667 -0.5 0
0.383333 -0.5 0
0.366667 -0.483333 0
0.383333 -0.483333 0
0.383333 -0.5 0
0.4 -0.5 0
0.383333 -0.483333 0
0.4 -0.483333 0
0.4 -0.5 0
0.416667 -0.5 0
0.4 -0.483333 0
0.416667 -0.483333 0
0.416667 -0.5 0
0.433333 -0.5 0
0.416667 -0.483333 0
0.433333 -0.483333 0
0.433333 -0.5 0
0.45 -0.5 0
0.433333 -0.483333 0
0.45 -0.483333 0
0.45 -0.5 0
0.466667 -0.5 0
0.45 -0.483333 0
0.466667 -0.483333 0
0.466667 -0.5 0
0.483333 -0.5 0
0.466667 -0.483333 0
0.483333 -0.483333 0
0.483333 -0.5 0
0.5 -0.5 0
0.483333 -0.483333 0
0.5 -0.483333 0
0.5 -0.5 0
0.516667 -0.5 0
0.5 -0.483333 0
0.516667 -0.483333 0
0.516667 -0.5 0
0.533333 -0.5 0
0.516667 -0.483333 0
0.533333 -0.483333 0
0.533333 -0.5 0
0.55 -0.5 0
0.533333 -0.483333 0
0.55 -0.483333 0
0.55 -0.5 0
0.566667 -0.5 0
0.55 -0.483333 0
0.566667 -0.483333 0
0.566667 -0.5 0
0.583333 -0.5 0
0.566667 -0.483333 0
0.583333 -0.483333 0
0.583333 -0.5 0
0.6 -0.5 0
0.583333 -0.483333 0
0.6 -0.483333 0
0.6 -0.5 0
0.616667 -0.5 0
0.6 -0.483333 0
0.616667 -0.483333 0
0.616667 -0.5 0
0.633333 -0.5 0
0.616667 -0.483333 0
0.633333 -0.483333 0
0.633333 -0.5 0
0.65 -0.5 0
0.633333 -0.483333 0
0.65 -0.483333 0
0.65 -0.5 0
0.666667 -0.5 0
0.65 -0.483333 0
0.666667 -0.483333 0
0.666667 -0.5 0
0.683333 -0.5 0
0.666667 -0.483333 0
0.683333 -0.483333 0
0.683333 -0.5 0
0.7 -0.5 0
0.683333 -0.483333 0
0.7 -0.483333 0
0.7 -0.5 0
0.716667 -0.5 0
0.7 -0.483333 0
0.716667 -0.483333 0
0.716667 -0.5 0
0.733333 -0.5 0
0.716667 -0.483333 0
0.733333 -0.483333 0
0.733333 -0.5 0
0.75 -0.5 0
0.733333 -0.483333 0
0.75 -0.483333 0
0.75 -0.5 0
0.766667 -0.5 0
0.75 -0.483333 0
0.766667 -0.483333 0
0.766667 -0.5 0
0.783333 -0.5 0
0.766667 -0.483333 0
0.783333 -0.483333 0
0.783333 -0.5 0
0.8 -0.5 0
0.783333 -0.483333 0
0.8 -0.483333 0
0.8 -0.5 0
0.816667 -0.5 0
0.8 -0.483333 0
0.816667 -0.483333 0
0.816667 -0.5 0
0.833333 -0.5 0
0.816667 -0.483333 0
0.833333 -0.483333 0
0.833333 -0.5 0
0.85 -0.5 0
0.833333 -0.483333 0
0.85 -0.483333 0
0.85 -0.5 0
0.866667 -0.5 0
0.85 -0.483333 0
0.866667 -0.483333 0
0.866667 -0.5 0
0.883333 -0.5 0
0.866667 -0.483333 0
0.883333 -0.483333 0
0.883333 -0.5 0
0.9 -0.5 0
0.883333 -0.483333 0
0.9 -0.483333 0
0.9 -0.5 0
0.916667 -0.5 0
0.9 -0.483333 0
0.916667 -0.483333 0
0.916667 -0.5 0
0.933333 -0.5 0
0.916667 -0.483333 0
0.933333 -0.483333 0
0.933333 -0.5 0
0.95 -0.5 0
0.933333 -0.483333 0
0.95 -0.483333 0
0.95 -0.5 0
0.966667 -0.5 0
0.95 -0.483333 0
0.966667 -0.483333 0
0.966667 -0.5 0
0.983333 -0.5 0
0.966667 -0.483333 0
0.983333 -0.483333 0
0.983333 -0.5 0
1 -0.5 0
0.983333 -0.483333 0
1 -0.483333 0
1 -0.5 0
1.01667 -0.5 0
1 -0.483333 0
1.01667 -0.483333 0
1.01667 -0.5 0
1.03333 -0.5 0
1.01667 -0.483333 0
1.03333 -0.483333 0
1.03333 -0.5 0
1.05 -0.5 0
1.03333 -0.483333 0
1.05 -0.483333 0
1.05 -0.5 0
1.06667 -0.5 0
1.05 -0.483333 0
1.06667 -0.483333 0
1.06667 -0.5 0
1.08333 -0.5 0
1.06667 -0.483333 0
1.08333 -0.483333 0
1.08333 -0.5 0
1.1 -0.5 0
1.08333 -0.483333 0
1.1 -0.483333 0
1.1 -0.5 0
1.11667 -0.5 0
1.1 -0.483333 0
1.11667 -0.483333 0
1.11667 -0.5 0
1.13333 -0.5 0
1.11667 -0.483333 0
1.13333 -0.483333 0
1.13333 -0.5 0
1.15 -0.5 0
1.13333 -0.483333 0
1.15 -0.483333 0
1.15 -0.5 0
1.16667 -0.5 0
1.15 -0.483333 0
1.16667 -0.483333 0
1.16667 -0.5 0
1.18333 -0.5 0
1.16667 -0.483333 0
1.18333 -0.483333 0
1.18333 -0.5 0
1.2 -0.5 0
1.18333 -0.483333 0
1.2 -0.483333 0
1.2 -0.5 0
1.21667 -0.5 0
1.2 -0.483333 0
1.21667 -0.483333 0
1.21667 -0.5 0
1.23333 -0.5 0
1.21667 -0.483333 0
1.23333 -0.483333 0
1.23333 -0.5 0
1.25 -0.5 0
1.23333 -0.483333 0
1.25 -0.483333 0
1.25 -0.5 0
1.26667 -0.5 0
1.25 -0.483333 0
1.26667 -0.483333 0
1.26667 -0.5 0
1.28333 -0.5 0
1.26667 -0.483333 0
1.28333 -0.483333 0
1.28333 -0.5 0
1.3 -0.5 0
1.28333 -0.483333 0
1.3 -0.483333 0
1.3 -0.5 0
1.31667 -0.5 0
1.3 -0.483333 0
1.31667 -0.483333 0
1.31667 -0.5 0
1.33333 -0.5 0
1.31667 -0.483333 0
1.33333 -0.483333 0
1.33333 -0.5 0
1.35 -0.5 0
1.33333 -0.483333 0
1.35 -0.483333 0
1.35 -0.5 0
1.36667 -0.5 0
1.35 -0.483333 0
1.36667 -0.483333 0
1.36667 -0.5 0
1.38333 -0.5 0
1.36667 -0.483333 0
1.38333 -0.483333 0
1.38333 -0.5 0
1.4 -0.5 0
1.38333 -0.483333 0
1.4 -0.483333 0
1.4 -0.5 0
1.41667 -0.5 0
1.4 -0.483333 0
1.41667 -0.483333 0
1.41667 -0.5 0
1.43333 -0.5 0
1.41667 -0.483333 0
1.43333 -0.483333 0
1.43333 -0.5 0
1.45 -0.5 0
1.43333 -0.483333 0
1.45 -0.483333 0
1.45 -0.5 0
1.46667 -0.5 0
1.45 -0.483333 0
1.46667 -0.483333 0
1.46667 -0.5 0
1.48333 -0.5 0
1.46667 -0.483333 0
1.48333 -0.483333 0
1.48333 -0.5 0
1.5 -0.5 0
1.48333 -0.483333 0
1.5 -0.483333 0
1.5 -0.5 0
1.51667 -0.5 0
1.5 -0.483333 0
1.51667 -0.483333 0
1.51667 -0.5 0
1.53333 -0.5 0
1.51667 -0.483333 0
1.53333 -0.483333 0
1.53333 -0.5 0
1.55 -0.5 0
1.53333 -0.483333 0
1.55 -0.483333 0
1.55 -0.5 0
1.56667 -0.5 0
1.55 -0.483333 0
1.56667 -0.483333 0
1.56667 -0.5 0
1.58333 -0.5 0
1.56667 -0.483333 0
1.58333 -0.483333 0
1.58333 -0.5 0
1.6 -0.5 0
1.58333 -0.483333 0
1.6 -0.483333 0
1.6 -0.5 0
1.61667 -0.5 0
1.6 -0.483333 0
1.61667 -0.483333 0
1.61667 -0.5 0
1.63333 -0.5 0
1.61667 -0.483333 0
1.63333 -0.483333 0
1.63333 -0.5 0
1.65 -0.5 0
1.63333 -0.483333 0
1.65 -0.483333 0
1.65 -0.5 0
1.66667 -0.5 0
1.65 -0.483333 0
1.66667 -0.483333 0
1.66667 -0.5 0
1.68333 -0.5 0
1.66667 -0.483333 0
1.68333 -0.483333 0
1.68333 -0.5 0
1.7 -0.5 0
1.68333 -0.483333 0
1.7 -0.483333 0
1.7 -0.5 0
1.71667 -0.5 0
1.7 -0.483333 0
1.71667 -0.483333 0
1.71667 -0.5 0
1.73333 -0.5 0
1.71667 -0.483333 0
1.73333 -0.483333 0
1.73333 -0.5 0
1.75 -0.5 0
1.73333 -0.483333 0
1.75 -0.483333 0
1.75 -0.5 0
1.76667 -0.5 0
1.75 -0.483333 0
1.76667 -0.483333 0
1.76667 -0.5 0
1.78333 -0.5 0
1.76667 -0.483333 0
1.78333 -0.483333 0
1.78333 -0.5 0
1.8 -0.5 0
1.78333 -0.483333 0
1.8 -0.483333 0
1.8 -0.5 0
1.81667 -0.5 0
1.8 -0.483333 0
1.81667 -0.483333 0
1.81667 -0.5 0
1.83333 -0.5 0
1.81667 -0.483333 0
1.83333 -0.483333 0
1.83333 -0.5 0
1.85 -0.5 0
1.83333 -0.483333 0
1.85 -0.483333 0
1.85 -0.5 0
1.86667 -0.5 0
1.85 -0.483333 0
1.86667 -0.483333 0
1.86667 -0.5 0
1.88333 -0.5 0
1.86667 -0.483333 0
1.88333 -0.483333 0
1.88333 -0.5 0
1.9 -0.5 0
1.88333 -0.483333 0
1.9 -0.483333 0
1.9 -0.5 0
1.91667 -0.5 0
1.9 -0.483333 0
1.91667 -0.483333 0
1.91667 -0.5 0
1.93333 -0.5 0
1.91667 -0.483333 0
1.93333 -0.483333 0
1.93333 -0.5 0
1.95 -0.5 0
1.93333 -0.483333 0
1.95 -0.483333 0
1.95 -0.5 0
1.96667 -0.5 0
1.95 -0.483333 0
1.96667 -0.483333 0
1.96667 -0.5 0
1.98333 -0.5 0
1.96667 -0.483333 0
1.98333 -0.483333 0
1.98333 -0.5 0
2 -0.5 0
1.98333 -0.483333 0
2 -0.483333 0
2 -0.5 0
2.01667 -0.5 0
2 -0.483333 0
2.01667 -0.483333 0
2.01667 -0.5 0
2.03333 -0.5 0
2.01667 -0.483333 0
2.03333 -0.483333 0
2.03333 -0.5 0
2.05 -0.5 0
2.03333 -0.483333 0
2.05 -0.483333 0
2.05 -0.5 0
2.06667 -0.5 0
2.05 -0.483333 0
2.06667 -0.483333 0
2.06667 -0.5 0
2.08333 -0.5 0
2.06667 -0.483333 0
2.08333 -0.483333 0
2.08333 -0.5 0
2.1 -0.5 0
2.08333 -0.483333 0
2.1 -0.483333 0
2.1 -0.5 0
2.11667 -0.5 0
2.1 -0.483333 0
2.11667 -0.483333 0
2.11667 -0.5 0
2.13333 -0.5 0
2.11667 -0.483333 0
2.13333 -0.483333 0
2.13333 -0.5 0
2.15 -0.5 0
2.13333 -0.483333 0
2.15 -0.483333 0
2.15 -0.5 0
2.16667 -0.5 0
2.15 -0.483333 0
2.16667 -0.483333 0
2.16667 -0.5 0
2.18333 -0.5 0
2.16667 -0.483333 0
2.18333 -0.483333 0
2.18333 -0.5 0
2.2 -0.5 0
2.18333 -0.483333 0
2.2 -0.483333 0
2.2 -0.5 0
2.21667 -0.5 0
2.2 -0.483333 0
2.21667 -0.483333 0
2.21667 -0.5 0
2.23333 -0.5 0
2.21667 -0.483333 0
2.23333 -0.483333 0
2.23333 -0.5 0
2.25 -0.5 0
2.23333 -0.483333 0
2.25 -0.483333 0
2.25 -0.5 0
2.26667 -0.5 0
2.25 -0.483333 0
2.26667 -0.483333 0
2.26667 -0.5 0
2.28333 -0.5 0
2.26667 -0.483333 0
2.28333 -0.483333 0
2.28333 -0.5 0
2.3 -0.5 0
2.28333 -0.483333 0
2.3 -0.483333 0
2.3 -0.5 0
2.31667 -0.5 0
2.3 -0.483333 0
2.31667 -0.483333 0
2.31667 -0.5 0
2.33333 -0.5 0
2.31667 -0.483333 0
2.33333 -0.483333 0
2.33333 -0.5 0
2.35 -0.5 0
2.33333 -0.483333 0
2.35 -0.483333 0
2.35 -0.5 0
2.36667 -0.5 0
2.35 -0.483333 0
2.36667 -0.483333 0
2.36667 -0.5 0
2.38333 -0.5 0
2.36667 -0.483333 0
2.38333 -0.483333 0
2.38333 -0.5 0
2.4 -0.5 0
2.38333 -0.483333 0
2.4 -0.483333 0
2.4 -0.5 0
2.41667 -0.5 0
2.4 -0.483333 0
2.41667 -0.483333 0
2.41667 -0.5 0
2.43333 -0.5 0
2.41667 -0.483333 0
2.43333 -0.483333 0
2.43333 -0.5 0
2.45 -0.5 0
2.43333 -0.483333 0
2.45 -0.483333 0
2.45 -0.5 0
2.46667 -0.5 0
2.45 -0.483333 0
2.46667 -0.483333 0
2.46667 -0.5 0
[...]
POINT_DATA 43200
SCALARS x1_displacement double 1
LOOKUP_TABLE default
0 -0.000181509 0 -7.2234e-05 -0.000181509 -0.00028956 -7.2234e-05 -0.000152509 -0.00028956 -0.000350757 -0.000152509 -0.00020997 -0.000350757 -0.000381823 -0.00020997 -0.000245583 -0.000381823 -0.00038944 -0.000245583 -0.000262264 -0.00038944 -0.000378138 -0.000262264 -0.000262835 -0.000378138 -0.000351209 -0.000262835 -0.000249734 -0.000351209 -0.000311356 -0.000249734 -0.00022509 -0.000311356 -0.000260925 -0.00022509 -0.000190815 -0.000260925 -0.00020203 -0.000190815 -0.000148655 -0.00020203 -0.000136607 -0.000148655 -0.000100223 -0.000136607 -6.64394e-05 -0.000100223 -4.70014e-05 -6.64394e-05 6.84807e-06 -4.70014e-05 9.66113e-06 6.84807e-06 8.18072e-05 9.66113e-06 6.8565e-05 8.18072e-05 0.000157193 6.8565e-05 0.000128682 0.000157193 0.000231995 0.000128682 0.00018918 0.000231995 0.00030547 0.00018918 0.000249448 0.00030547 0.000377176 0.000249448 0.000309118 0.000377176 0.000446989 0.000309118 0.000368083 0.000446989 0.000515126 0.000368083 0.000426511 0.000515126 0.000582156 0.000426511 0.00048485 0.000582156 0.000648996 0.00048485 0.000543827 0.000648996 0.000716913 0.000543827 0.000604449 0.000716913 0.000787519 0.000604449 0.000667987 0.000787519 0.000862767 0.000667987 0.000735976 0.000862767 0.000944949 0.000735976 0.000810204 0.000944949 0.0010367 0.000810204 0.000892704 0.0010367 0.00114099 0.000892704 0.000985742 0.00114099 0.00126114 0.000985742 0.0010918 0.00126114 0.00140076 0.0010918 0.00121356 0.00140076 0.00156368 0.00121356 0.00135379 0.00156368 0.00175388 0.00135379 0.00151531 0.00175388 0.00197517 0.00151531 0.00170081 0.00197517 0.00223098 0.00170081 0.00191264 0.00223098 0.00252392 0.00191264 0.00215255 0.00252392 0.00285535 0.00215255 0.00242139 0.00285535 0.003225 0.00242139 0.00271886 0.003225 0.00363069 0.00271886 0.00304332 0.00363069 0.00406834 0.00304332 0.0033918 0.00406834 0.00453221 0.0033918 0.00376016 0.00453221 0.00501548 0.00376016 0.00414348 0.00501548 0.00551091 0.00414348 0.00453655 0.00551091 0.00601156 0.00453655 0.00493435 0.00601156 0.00651128 0.00493435 0.00533241 0.00651128 0.0070051 0.00533241 0.00572704 0.0070051 0.00748925 0.00572704 0.00611539 0.00748925 0.00796114 0.00611539 0.00649538 0.00796114 0.00841911 0.00649538 0.00686563 0.00841911 0.00886227 0.00686563 0.00722525 0.00886227 0.00929024 0.00722525 0.00757376 0.00929024 0.00970302 0.00757376 0.00791098 0.00970302 0.0101008 0.00791098 0.0082369 0.0101008 0.010484 0.0082369 0.00855163 0.010484 0.0108529 0.00855163 0.00885537 0.0108529 0.0112081 0.00885537 0.00914834 0.0112081 0.0115498 0.00914834 0.00943077 0.0115498 0.0118785 0.00943077 0.00970293 0.0118785 0.0121945 0.00970293 0.00996506 0.0121945 0.0124982 0.00996506 0.0102174 0.0124982 0.0127901 0.0102174 0.0104603 0.0127901 0.0130706 0.0104603 0.0106941 0.0130706 0.0133401 0.0106941 0.0109192 0.0133401 0.0135993 0.0109192 0.0111359 0.0135993 0.0138489 0.0111359 0.0113449 0.0138489 0.0140898 0.0113449 0.0115469 0.0140898 0.0143229 0.0115469 0.0117424 0.0143229 0.0145493 0.0117424 0.0119324 0.0145493 0.0147702 0.0119324 0.0121176 0.0147702 0.0149865 0.0121176 0.0122989 0.0149865 0.0151993 0.0122989 0.0124769 0.0151993 0.0154094 0.0124769 0.0126523 0.0154094 0.0156175 0.0126523 0.0128255 0.0156175 0.0158236 0.0128255 0.0129967 0.0158236 0.0160278 0.0129967 0.0131658 0.0160278 0.0162297 0.0131658 0.0133325 0.0162297 0.0164286 0.0133325 0.0134964 0.0164286 0.0166236 0.0134964 0.0136566 0.0166236 0.0168135 0.0136566 0.0138126 0.0168135 0.0169973 0.0138126 0.0139634 0.0169973 0.0171737 0.0139634 0.0141082 0.0171737 0.0173418 0.0141082 0.0142462 0.0173418 0.0175006 0.0142462 0.0143768 0.0175006 0.0176495 0.0143768 0.0144996 0.0176495 0.0177879 0.0144996 0.0146141 0.0177879 0.0179159 0.0146141 0.0147206 0.0179159 0.0180337 0.0147206 0.0148192 0.0180337 0.0181422 0.0148192 0.0149107 0.0181422 0.0182426 0.0149107 0.014996 0.0182426 0.0183366 0.014996 0.0150767 0.0183366 0.0184265 0.0150767 0.0151544 0.0184265 0.0185149 0.0151544 0.0152313 0.0185149 0.0186052 0.0152313 0.0153099 0.0186052 0.0187007 0.0153099 0.0153928 0.0187007 0.0188053 0.0153928 0.0154829 0.0188053 0.0189229 0.0154829 0.0155832 0.0189229 0.0190573 0.0155832 0.0156965 0.0190573 0.0192118 0.0156965 0.0158252 0.0192118 0.0193895 0.0158252 0.0159716 0.0193895 0.0195921 0.0159716 0.0161371 0.0195921 0.0198204 0.0161371 0.0163221 0.0198204 0.0200739 0.0163221 0.0165264 0.0200739 0.0203505 0.0165264 0.0167484 0.0203505 0.020647 0.0167484 0.016986 0.020647 0.0209592 0.016986 0.0172362 0.0209592 0.0212825 0.0172362 0.0174955 0.0212825 0.0216121 0.0174955 0.0177607 0.0216121 0.0219438 0.0177607 0.0180287 0.0219438 0.0222743 0.0180287 0.018297 0.0222743 0.0226011 0.018297 0.0185638 0.0226011 0.0229231 0.0185638 0.0188282 0.0229231 0.0232398 0.0188282 0.0190899 0.0232398 0.0235518 0.0190899 0.019349 0.0235518 0.0238602 0.019349 0.0196063 0.0238602 0.024166 0.0196063 0.0198624 0.024166 0.0244705 0.0198624 0.0201179 0.0244705 0.0247742 0.0201179 0.0203734 0.0247742 0.0250776 0.0203734 0.020629 0.0250776 0.0253802 0.020629 0.0208842 0.0253802 0.0256813 0.0208842 0.0211386 0.0256813 0.0259798 0.0211386 0.0213913 0.0259798 0.0262746 0.0213913 0.0216414 0.0262746 0.0265645 0.0216414 0.021888 0.0265645 0.0268487 0.021888 0.0221305 0.0268487 0.0271271 0.0221305 0.0223686 0.0271271 0.0273999 0.0223686 0.0226023 0.0273999 0.0276681 0.0226023 0.0228323 0.0276681 0.0279332 0.0228323 0.0230595 0.0279332 0.028197 0.0230595 0.0232849 0.028197 0.0284613 0.0232849 0.0235098 0.0284613 0.0287277 0.0235098 0.0237353 0.0287277 0.0289971 0.0237353 0.0239619 0.0289971 0.0292699 0.0239619 0.02419 0.0292699 0.0295457 0.02419 0.0244192 0.0295457 0.0298235 0.0244192 0.024649 0.0298235 0.0301017 0.024649 0.0248784 0.0301017 0.0303789 0.0248784 0.0251064 0.0303789 0.0306534 0.0251064 0.0253318 0.0306534 0.0309238 0.0253318 0.0255538 0.0309238 0.0311887 0.0255538 0.0257714 0.0311887 0.0314474 0.0257714 0.025984 0.0314474 0.0316991 0.025984 0.026191 0.0316991 0.0319431 0.026191 0.0263919 0.0319431 0.0321786 0.0263919 0.0265862 0.0321786 0.0324049 0.0265862 0.0267732 0.0324049 0.0326212 0.0267732 0.0269522 0.0326212 0.0328268 0.0269522 0.0271227 0.0328268 0.0330207 0.0271227 0.0272841 0.0330207 0.0332024 0.0272841 0.0274357 0.0332024 0.033371 0.0274357 0.0275771 0.033371 0.0335261 0.0275771 0.0277079 0.0335261 0.0336671 0.0277079 0.0278276 0.0336671 0.033794 0.0278276 0.0279362 0.033794 0.0339065 0.0279362 0.0280336 0.0339065 0.0340048 0.0280336 0.0281199 0.0340048 0.0340894 0.0281199 0.0281956 0.0340894 0.0341612 0.0281956 0.0282613 0.0341612 0.0342215 0.0282613 0.0283181 0.0342215 0.0342722 0.0283181 0.0283674 0.0342722 0.0343162 0.0283674 0.0284111 0.0343162 0.0343575 0.0284111 0.0284517 0.0343575 0.0344016 0.0284517 0.0284924 0.0344016 0.0344563 0.0284924 0.0285371 0.0344563 0.0345313 0.0285371 0.0285905 0.0345313 0.0346383 0.0285905 0.028658 0.0346383 0.0347878 0.028658 0.0287445 0.0347878 0.0349849 0.0287445 0.0288526 0.0349849 0.0352247 0.0288526 0.028978 0.0352247 0.0354934 0.028978 0.0291097 0.0354934 0.0357756 0.0291097 0.0292352 0.0357756 0.0360584 0.0292352 0.029347 0.0360584 0.0363297 0.029347 0.0294376 0.0363297 0.0365772 0.0294376 0.0294938 0.0365772 0.036791 0.0294938 0.0295081 0.036791 0.0369526 0.0295081 0.0294821 0.0369526 0.0370235 0.0294821 0.0294094 0.0370235 0.0369764 0.0294094 0.0292847 0.0369764 0.0368416 0.0292847 0.0291395 0.0368416 0.0367025 0.0291395 0.0290262 0.0367025 0.0366286 0.0290262 0.0289756 0.0366286 0.0366143 0.0289756 0.0289767 0 -7.2234e-05 0 -4.4567e-05 -7.2234e-05 -0.000152509 -4.4567e-05 -8.75426e-05 -0.000152509 -0.00020997 -8.75426e-05 -0.000128048 -0.00020997 -0.000245583 -0.000128048 -0.000157992 -0.000245583 -0.000262264 -0.000157992 -0.000175851 -0.000262264 -0.000262835 -0.000175851 -0.000181917 -0.000262835 -0.000249734 -0.000181917 -0.000177199 -0.000249734 -0.00022509 -0.000177199 -0.000162936 -0.00022509 -0.000190815 -0.000162936 -0.000140432 -0.000190815 -0.000148655 -0.000140432 -0.000110982 -0.000148655 -0.000100223 -0.000110982 -7.58454e-05 -0.000100223 -4.70014e-05 -7.58454e-05 -3.62155e-05 -4.70014e-05 9.66113e-06 -3.62155e-05 6.79778e-06 9.66113e-06 6.8565e-05 6.79778e-06 5.21926e-05 6.8565e-05 0.000128682 5.21926e-05 9.90987e-05 0.000128682 0.00018918 9.90987e-05 0.000146802 0.00018918 0.000249448 0.000146802 0.000194766 0.000249448 0.000309118 0.000194766 0.000242657 0.000309118 0.000368083 0.000242657 0.000290351 0.000368083 0.000426511 0.000290351 0.000337951 0.000426511 0.00048485 0.000337951 0.000385785 0.00048485 0.000543827 0.000385785 0.000434399 0.000543827 0.000604449 0.000434399 0.00048455 0.000604449 0.000667987 0.00048455 0.000537193 0.000667987 0.000735976 0.000537193 0.000593462 0.000735976 0.000810204 0.000593462 0.000654662 0.000810204 0.000892704 0.000654662 0.000722254 0.000892704 0.000985742 0.000722254 0.000797851 0.000985742 0.0010918 0.000797851 0.000883204 0.0010918 0.00121356 0.000883204 0.000980197 0.00121356 0.00135379 0.000980197 0.00109082 0.00135379 0.00151531 0.00109082 0.00121715 0.00151531 0.00170081 0.00121715 0.00136123 0.00170081 0.00191264 0.00136123 0.00152497 0.00191264 0.00215255 0.00152497 0.00170994 0.00215255 0.00242139 0.00170994 0.00191709 0.00242139 0.00271886 0.00191709 0.00214648 0.00271886 0.00304332 0.00214648 0.00239701 0.00304332 0.0033918 0.00239701 0.00266633 0.0033918 0.00376016 0.00266633 0.00295103 0.00376016 0.00414348 0.00295103 0.00324699 0.00414348 0.00453655 0.00324699 0.00354992 0.00453655 0.00493435 0.00354992 0.00385584 0.00493435 0.00533241 0.00385584 0.00416139 0.00533241 0.00572704 0.00416139 0.00446401 0.00572704 0.00611539 0.00446401 0.00476182 0.00611539 0.00649538 0.00476182 0.00505356 0.00649538 0.00686563 0.00505356 0.00533838 0.00686563 0.00722525 0.00533838 0.00561575 0.00722525 0.00757376 0.00561575 0.00588536 0.00757376 0.00791098 0.00588536 0.00614706 0.00791098 0.0082369 0.00614706 0.00640083 0.0082369 0.00855163 0.00640083 0.00664667 0.00855163 0.00885537 0.00664667 0.00688466 0.00885537 0.00914834 0.00688466 0.00711487 0.00914834 0.00943077 0.00711487 0.00733741 0.00943077 0.00970293 0.00733741 0.0075524 0.00970293 0.00996506 0.0075524 0.00775995 0.00996506 0.0102174 0.00775995 0.00796019 0.0102174 0.0104603 0.00796019 0.00815328 0.0104603 0.0106941 0.00815328 0.00833941 0.0106941 0.0109192 0.00833941 0.00851878 0.0109192 0.0111359 0.00851878 0.00869171 0.0111359 0.0113449 0.00869171 0.00885854 0.0113449 0.0115469 0.00885854 0.00901972 0.0115469 0.0117424 0.00901972 0.00917578 0.0117424 0.0119324 0.00917578 0.00932732 0.0119324 0.0121176 0.00932732 0.00947497 0.0121176 0.0122989 0.00947497 0.00961939 0.0122989 0.0124769 0.00961939 0.00976119 0.0124769 0.0126523 0.00976119 0.00990087 0.0126523 0.0128255 0.00990087 0.0100388 0.0128255 0.0129967 0.0100388 0.0101751 0.0129967 0.0131658 0.0101751 0.0103098 0.0131658 0.0133325 0.0103098 0.0104426 0.0133325 0.0134964 0.0104426 0.010573 0.0134964 0.0136566 0.010573 0.0107006 0.0136566 0.0138126 0.0107006 0.0108246 0.0138126 0.0139634 0.0108246 0.0109445 0.0139634 0.0141082 0.0109445 0.0110595 0.0141082 0.0142462 0.0110595 0.011169 0.0142462 0.0143768 0.011169 0.0112726 0.0143768 0.0144996 0.0112726 0.0113698 0.0144996 0.0146141 0.0113698 0.0114604 0.0146141 0.0147206 0.0114604 0.0115445 0.0147206 0.0148192 0.0115445 0.0116222 0.0148192 0.0149107 0.0116222 0.0116941 0.0149107 0.014996 0.0116941 0.0117609 0.014996 0.0150767 0.0117609 0.0118238 0.0150767 0.0151544 0.0118238 0.011884 0.0151544 0.0152313 0.011884 0.0119433 0.0152313 0.0153099 0.0119433 0.0120035 0.0153099 0.0153928 0.0120035 0.0120667 0.0153928 0.0154829 0.0120667 0.0121352 0.0154829 0.0155832 0.0121352 0.0122113 0.0155832 0.0156965 0.0122113 0.0122972 0.0156965 0.0158252 0.0122972 0.0123952 0.0158252 0.0159716 0.0123952 0.0125069 0.0159716 0.0161371 0.0125069 0.0126339 0.0161371 0.0163221 0.0126339 0.0127767 0.0163221 0.0165264 0.0127767 0.0129351 0.0165264 0.0167484 0.0129351 0.0131082 0.0167484 0.016986 0.0131082 0.0132941 0.016986 0.0172362 0.0132941 0.0134902 0.0172362 0.0174955 0.0134902 0.0136937 0.0174955 0.0177607 0.0136937 0.0139019 0.0177607 0.0180287 0.0139019 0.0141121 0.0180287 0.018297 0.0141121 0.0143226 0.018297 0.0185638 0.0143226 0.014532 0.0185638 0.0188282 0.014532 0.0147398 0.0188282 0.0190899 0.0147398 0.014946 0.0190899 0.019349 0.014946 0.0151509 0.019349 0.0196063 0.0151509 0.0153554 0.0196063 0.0198624 0.0153554 0.0155601 0.0198624 0.0201179 0.0155601 0.0157658 0.0201179 0.0203734 0.0157658 0.0159729 0.0203734 0.020629 0.0159729 0.0161812 0.020629 0.0208842 0.0161812 0.0163906 0.0208842 0.0211386 0.0163906 0.0166003 0.0211386 0.0213913 0.0166003 0.0168094 0.0213913 0.0216414 0.0168094 0.0170168 0.0216414 0.021888 0.0170168 0.0172216 0.021888 0.0221305 0.0172216 0.017423 0.0221305 0.0223686 0.017423 0.0176205 0.0223686 0.0226023 0.0176205 0.0178139 0.0226023 0.0228323 0.0178139 0.0180035 0.0228323 0.0230595 0.0180035 0.01819 0.0230595 0.0232849 0.01819 0.0183743 0.0232849 0.0235098 0.0183743 0.0185574 0.0235098 0.0237353 0.0185574 0.0187403 0.0237353 0.0239619 0.0187403 0.0189236 0.0239619 0.02419 0.0189236 0.0191074 0.02419 0.0244192 0.0191074 0.0192916 0.0244192 0.024649 0.0192916 0.0194756 0.024649 0.0248784 0.0194756 0.0196587 0.0248784 0.0251064 0.0196587 0.01984 0.0251064 0.0253318 0.01984 0.0200188 0.0253318 0.0255538 0.0200188 0.0201945 0.0255538 0.0257714 0.0201945 0.0203664 0.0257714 0.025984 0.0203664 0.0205344 0.025984 0.026191 0.0205344 0.0206982 0.026191 0.0263919 0.0206982 0.0208575 0.0263919 0.0265862 0.0208575 0.021012 0.0265862 0.0267732 0.021012 0.0211611 0.0267732 0.0269522 0.0211611 0.0213045 0.0269522 0.0271227 0.0213045 0.0214415 0.0271227 0.0272841 0.0214415 0.0215717 0.0272841 0.0274357 0.0215717 0.0216945 0.0274357 0.0275771 0.0216945 0.0218098 0.0275771 0.0277079 0.0218098 0.021917 0.0277079 0.0278276 0.021917 0.0220158 0.0278276 0.0279362 0.0220158 0.0221062 0.0279362 0.0280336 0.0221062 0.0221881 0.0280336 0.0281199 0.0221881 0.0222614 0.0281199 0.0281956 0.0222614 0.0223264 0.0281956 0.0282613 0.0223264 0.0223834 0.0282613 0.0283181 0.0223834 0.022433 0.0283181 0.0283674 0.022433 0.0224758 0.0283674 0.0284111 0.0224758 0.0225126 0.0284111 0.0284517 0.0225126 0.0225442 0.0284517 0.0284924 0.0225442 0.0225713 0.0284924 0.0285371 0.0225713 0.0225945 0.0285371 0.0285905 0.0225945 0.0226146 0.0285905 0.028658 0.0226146 0.0226334 0.028658 0.0287445 0.0226334 0.0226548 0.0287445 0.0288526 0.0226548 0.0226832 0.0288526 0.028978 0.0226832 0.0227161 0.028978 0.0291097 0.0227161 0.0227376 0.0291097 0.0292352 0.0227376 0.02273 0.0292352 0.029347 0.02273 0.0226899 0.029347 0.0294376 0.0226899 0.0226241 0.0294376 0.0294938 0.0226241 0.0225192 0.0294938 0.0295081 0.0225192 0.0223583 0.0295081 0.0294821 0.0223583 0.0221368 0.0294821 0.0294094 0.0221368 0.0218651 0.0294094 0.0292847 0.0218651 0.0215842 0.0292847 0.0291395 0.0215842 0.021366 0.0291395 0.0290262 0.021366 0.0212688 0.0290262 0.0289756 0.0212688 0.0212595 0.0289756 0.0289767 0.0212595 0.0213055 0 -4.4567e-05 0 -3.10774e-05 -4.4567e-05 -8.75426e-05 -3.10774e-05 -5.8888e-05 -8.75426e-05 -0.000128048 -5.8888e-05 -8.47938e-05 -0.000128048 -0.000157992 -8.47938e-05 -0.000106764 -0.000157992 -0.000175851 -0.000106764 -0.00012209 -0.000175851 -0.000181917 -0.00012209 -0.000129738 -0.000181917 -0.000177199 -0.000129738 -0.000129601 -0.000177199 -0.000162936 -0.000129601 -0.000122106 -0.000162936 -0.000140432 -0.000122106 -0.000107963 -0.000140432 -0.000110982 -0.000107963 -8.80286e-05 -0.000110982 -7.58454e-05 -8.80286e-05 -6.32241e-05 -7.58454e-05 -3.62155e-05 -6.32241e-05 -3.4484e-05 -3.62155e-05 6.79778e-06 -3.4484e-05 -2.71647e-06 6.79778e-06 5.21926e-05 -2.71647e-06 3.12295e-05 5.21926e-05 9.90987e-05 3.12295e-05 6.65938e-05 9.90987e-05 0.000146802 6.65938e-05 0.000102734 0.000146802 0.000194766 0.000102734 0.000139149 0.000194766 0.000242657 0.000139149 0.000175505 0.000242657 0.000290351 0.000175505 0.000211644 0.000290351 0.000337951 0.000211644 0.000247595 0.000337951 0.000385785 0.000247595 0.000283571 0.000385785 0.000434399 0.000283571 0.000319954 0.000434399 0.00048455 0.000319954 0.000357279 0.00048455 0.000537193 0.000357279 0.000396208 0.000537193 0.000593462 0.000396208 0.000437513 0.000593462 0.000654662 0.000437513 0.000482053 0.000654662 0.000722254 0.000482053 0.000530765 0.000722254 0.000797851 0.000530765 0.000584666 0.000797851 0.000883204 0.000584666 0.00064486 0.000883204 0.000980197 0.00064486 0.00071257 0.000980197 0.00109082 0.00071257 0.000789163 0.00109082 0.00121715 0.000789163 0.000876186 0.00121715 0.00136123 0.000876186 0.000975364 0.00136123 0.00152497 0.000975364 0.00108854 0.00152497 0.00170994 0.00108854 0.00121752 0.00170994 0.00191709 0.00121752 0.00136373 0.00191709 0.00214648 0.00136373 0.00152785 0.00214648 0.00239701 0.00152785 0.00170933 0.00239701 0.00266633 0.00170933 0.00190622 0.00266633 0.00295103 0.00190622 0.0021152 0.00295103 0.00324699 0.0021152 0.0023322 0.00324699 0.00354992 0.0023322 0.00255311 0.00354992 0.00385584 0.00255311 0.00277442 0.00385584 0.00416139 0.00277442 0.0029936 0.00416139 0.00446401 0.0029936 0.00320914 0.00446401 0.00476182 0.00320914 0.00342022 0.00476182 0.00505356 0.00342022 0.00362651 0.00505356 0.00533838 0.00362651 0.0038279 0.00533838 0.00561575 0.0038279 0.00402434 0.00561575 0.00588536 0.00402434 0.00421586 0.00588536 0.00614706 0.00421586 0.00440249 0.00614706 0.00640083 0.00440249 0.00458428 0.00640083 0.00664667 0.00458428 0.00476122 0.00664667 0.00688466 0.00476122 0.00493331 0.00688466 0.00711487 0.00493331 0.00510055 0.00711487 0.00733741 0.00510055 0.00526291 0.00733741 0.0075524 0.00526291 0.00542039 0.0075524 0.00775995 0.00542039 0.00557296 0.00775995 0.00796019 0.00557296 0.00572062 0.00796019 0.00815328 0.00572062 0.00586336 0.00815328 0.00833941 0.00586336 0.00600117 0.00833941 0.00851878 0.00600117 0.00613411 0.00851878 0.00869171 0.00613411 0.00626228 0.00869171 0.00885854 0.00626228 0.00638583 0.00885854 0.00901972 0.00638583 0.00650505 0.00901972 0.00917578 0.00650505 0.00662028 0.00917578 0.00932732 0.00662028 0.00673198 0.00932732 0.00947497 0.00673198 0.00684071 0.00947497 0.00961939 0.00684071 0.00694705 0.00961939 0.00976119 0.00694705 0.0070516 0.00976119 0.00990087 0.0070516 0.00715485 0.00990087 0.0100388 0.00715485 0.00725718 0.0100388 0.0101751 0.00725718 0.00735873 0.0101751 0.0103098 0.00735873 0.00745948 0.0103098 0.0104426 0.00745948 0.00755916 0.0104426 0.010573 0.00755916 0.00765735 0.010573 0.0107006 0.00765735 0.00775353 0.0107006 0.0108246 0.00775353 0.00784708 0.0108246 0.0109445 0.00784708 0.00793739 0.0109445 0.0110595 0.00793739 0.00802387 0.0110595 0.011169 0.00802387 0.00810597 0.011169 0.0112726 0.00810597 0.00818322 0.0112726 0.0113698 0.00818322 0.00825523 0.0113698 0.0114604 0.00825523 0.00832175 0.0114604 0.0115445 0.00832175 0.00838271 0.0115445 0.0116222 0.00838271 0.00843817 0.0116222 0.0116941 0.00843817 0.00848845 0.0116941 0.0117609 0.00848845 0.00853407 0.0117609 0.0118238 0.00853407 0.0085758 0.0118238 0.011884 0.0085758 0.00861464 0.011884 0.0119433 0.00861464 0.00865183 0.0119433 0.0120035 0.00865183 0.00868883 0.0120035 0.0120667 0.00868883 0.00872728 0.0120667 0.0121352 0.00872728 0.00876901 0.0121352 0.0122113 0.00876901 0.00881598 0.0122113 0.0122972 0.00881598 0.0088702 0.0122972 0.0123952 0.0088702 0.00893371 0.0123952 0.0125069 0.00893371 0.00900839 0.0125069 0.0126339 0.00900839 0.00909578 0.0126339 0.0127767 0.00909578 0.00919683 0.0127767 0.0129351 0.00919683 0.00931166 0.0129351 0.0131082 0.00931166 0.00943943 0.0131082 0.0132941 0.00943943 0.00957831 0.0132941 0.0134902 0.00957831 0.00972577 0.0134902 0.0136937 0.00972577 0.00987891 0.0136937 0.0139019 0.00987891 0.010035 0.0139019 0.0141121 0.010035 0.0101916 0.0141121 0.0143226 0.0101916 0.0103472 0.0143226 0.014532 0.0103472 0.010501 0.014532 0.0147398 0.010501 0.0106529 0.0147398 0.014946 0.0106529 0.0108033 0.014946 0.01515