# vtk DataFile Version 3.0
#This file was generated by the deal.II library on 2021/2/9 at 23:14:27
ASCII
DATASET UNSTRUCTURED_GRID

POINTS 43200 double
0 -0.5 0
0.0166667 -0.5 0
0 -0.483333 0
0.0166667 -0.483333 0
0.0166667 -0.5 0
0.0333333 -0.5 0
0.0166667 -0.483333 0
0.0333333 -0.483333 0
0.0333333 -0.5 0
0.05 -0.5 0
0.0333333 -0.483333 0
0.05 -0.483333 0
0.05 -0.5 0
0.0666667 -0.5 0
0.05 -0.483333 0
0.0666667 -0.483333 0
0.0666667 -0.5 0
0.0833333 -0.5 0
0.0666667 -0.483333 0
0.0833333 -0.483333 0
0.0833333 -0.5 0
0.1 -0.5 0
0.0833333 -0.483333 0
0.1 -0.483333 0
0.1 -0.5 0
0.116667 -0.5 0
0.1 -0.483333 0
0.116667 -0.483333 0
0.116667 -0.5 0
0.133333 -0.5 0
0.116667 -0.483333 0
0.133333 -0.483333 0
0.133333 -0.5 0
0.15 -0.5 0
0.133333 -0.483333 0
0.15 -0.483333 0
0.15 -0.5 0
0.166667 -0.5 0
0.15 -0.483333 0
0.166667 -0.483333 0
0.166667 -0.5 0
0.183333 -0.5 0
0.166667 -0.483333 0
0.183333 -0.483333 0
0.183333 -0.5 0
0.2 -0.5 0
0.183333 -0.483333 0
0.2 -0.483333 0
0.2 -0.5 0
0.216667 -0.5 0
0.2 -0.483333 0
0.216667 -0.483333 0
0.216667 -0.5 0
0.233333 -0.5 0
0.216667 -0.483333 0
0.233333 -0.483333 0
0.233333 -0.5 0
0.25 -0.5 0
0.233333 -0.483333 0
0.25 -0.483333 0
0.25 -0.5 0
0.266667 -0.5 0
0.25 -0.483333 0
0.266667 -0.483333 0
0.266667 -0.5 0
0.283333 -0.5 0
0.266667 -0.483333 0
0.283333 -0.483333 0
0.283333 -0.5 0
0.3 -0.5 0
0.283333 -0.483333 0
0.3 -0.483333 0
0.3 -0.5 0
0.316667 -0.5 0
0.3 -0.483333 0
0.316667 -0.483333 0
0.316667 -0.5 0
0.333333 -0.5 0
0.316667 -0.483333 0
0.333333 -0.483333 0
0.333333 -0.5 0
0.35 -0.5 0
0.333333 -0.483333 0
0.35 -0.483333 0
0.35 -0.5 0
0.366667 -0.5 0
0.35 -0.483333 0
0.366667 -0.483333 0
0.366667 -0.5 0
0.383333 -0.5 0
0.366667 -0.483333 0
0.383333 -0.483333 0
0.383333 -0.5 0
0.4 -0.5 0
0.383333 -0.483333 0
0.4 -0.483333 0
0.4 -0.5 0
0.416667 -0.5 0
0.4 -0.483333 0
0.416667 -0.483333 0
0.416667 -0.5 0
0.433333 -0.5 0
0.416667 -0.483333 0
0.433333 -0.483333 0
0.433333 -0.5 0
0.45 -0.5 0
0.433333 -0.483333 0
0.45 -0.483333 0
0.45 -0.5 0
0.466667 -0.5 0
0.45 -0.483333 0
0.466667 -0.483333 0
0.466667 -0.5 0
0.483333 -0.5 0
0.466667 -0.483333 0
0.483333 -0.483333 0
0.483333 -0.5 0
0.5 -0.5 0
0.483333 -0.483333 0
0.5 -0.483333 0
0.5 -0.5 0
0.516667 -0.5 0
0.5 -0.483333 0
0.516667 -0.483333 0
0.516667 -0.5 0
0.533333 -0.5 0
0.516667 -0.483333 0
0.533333 -0.483333 0
0.533333 -0.5 0
0.55 -0.5 0
0.533333 -0.483333 0
0.55 -0.483333 0
0.55 -0.5 0
0.566667 -0.5 0
0.55 -0.483333 0
0.566667 -0.483333 0
0.566667 -0.5 0
0.583333 -0.5 0
0.566667 -0.483333 0
0.583333 -0.483333 0
0.583333 -0.5 0
0.6 -0.5 0
0.583333 -0.483333 0
0.6 -0.483333 0
0.6 -0.5 0
0.616667 -0.5 0
0.6 -0.483333 0
0.616667 -0.483333 0
0.616667 -0.5 0
0.633333 -0.5 0
0.616667 -0.483333 0
0.633333 -0.483333 0
0.633333 -0.5 0
0.65 -0.5 0
0.633333 -0.483333 0
0.65 -0.483333 0
0.65 -0.5 0
0.666667 -0.5 0
0.65 -0.483333 0
0.666667 -0.483333 0
0.666667 -0.5 0
0.683333 -0.5 0
0.666667 -0.483333 0
0.683333 -0.483333 0
0.683333 -0.5 0
0.7 -0.5 0
0.683333 -0.483333 0
0.7 -0.483333 0
0.7 -0.5 0
0.716667 -0.5 0
0.7 -0.483333 0
0.716667 -0.483333 0
0.716667 -0.5 0
0.733333 -0.5 0
0.716667 -0.483333 0
0.733333 -0.483333 0
0.733333 -0.5 0
0.75 -0.5 0
0.733333 -0.483333 0
0.75 -0.483333 0
0.75 -0.5 0
0.766667 -0.5 0
0.75 -0.483333 0
0.766667 -0.483333 0
0.766667 -0.5 0
0.783333 -0.5 0
0.766667 -0.483333 0
0.783333 -0.483333 0
0.783333 -0.5 0
0.8 -0.5 0
0.783333 -0.483333 0
0.8 -0.483333 0
0.8 -0.5 0
0.816667 -0.5 0
0.8 -0.483333 0
0.816667 -0.483333 0
0.816667 -0.5 0
0.833333 -0.5 0
0.816667 -0.483333 0
0.833333 -0.483333 0
0.833333 -0.5 0
0.85 -0.5 0
0.833333 -0.483333 0
0.85 -0.483333 0
0.85 -0.5 0
0.866667 -0.5 0
0.85 -0.483333 0
0.866667 -0.483333 0
0.866667 -0.5 0
0.883333 -0.5 0
0.866667 -0.483333 0
0.883333 -0.483333 0
0.883333 -0.5 0
0.9 -0.5 0
0.883333 -0.483333 0
0.9 -0.483333 0
0.9 -0.5 0
0.916667 -0.5 0
0.9 -0.483333 0
0.916667 -0.483333 0
0.916667 -0.5 0
0.933333 -0.5 0
0.916667 -0.483333 0
0.933333 -0.483333 0
0.933333 -0.5 0
0.95 -0.5 0
0.933333 -0.483333 0
0.95 -0.483333 0
0.95 -0.5 0
0.966667 -0.5 0
0.95 -0.483333 0
0.966667 -0.483333 0
0.966667 -0.5 0
0.983333 -0.5 0
0.966667 -0.483333 0
0.983333 -0.483333 0
0.983333 -0.5 0
1 -0.5 0
0.983333 -0.483333 0
1 -0.483333 0
1 -0.5 0
1.01667 -0.5 0
1 -0.483333 0
1.01667 -0.483333 0
1.01667 -0.5 0
1.03333 -0.5 0
1.01667 -0.483333 0
1.03333 -0.483333 0
1.03333 -0.5 0
1.05 -0.5 0
1.03333 -0.483333 0
1.05 -0.483333 0
1.05 -0.5 0
1.06667 -0.5 0
1.05 -0.483333 0
1.06667 -0.483333 0
1.06667 -0.5 0
1.08333 -0.5 0
1.06667 -0.483333 0
1.08333 -0.483333 0
1.08333 -0.5 0
1.1 -0.5 0
1.08333 -0.483333 0
1.1 -0.483333 0
1.1 -0.5 0
1.11667 -0.5 0
1.1 -0.483333 0
1.11667 -0.483333 0
1.11667 -0.5 0
1.13333 -0.5 0
1.11667 -0.483333 0
1.13333 -0.483333 0
1.13333 -0.5 0
1.15 -0.5 0
1.13333 -0.483333 0
1.15 -0.483333 0
1.15 -0.5 0
1.16667 -0.5 0
1.15 -0.483333 0
1.16667 -0.483333 0
1.16667 -0.5 0
1.18333 -0.5 0
1.16667 -0.483333 0
1.18333 -0.483333 0
1.18333 -0.5 0
1.2 -0.5 0
1.18333 -0.483333 0
1.2 -0.483333 0
1.2 -0.5 0
1.21667 -0.5 0
1.2 -0.483333 0
1.21667 -0.483333 0
1.21667 -0.5 0
1.23333 -0.5 0
1.21667 -0.483333 0
1.23333 -0.483333 0
1.23333 -0.5 0
1.25 -0.5 0
1.23333 -0.483333 0
1.25 -0.483333 0
1.25 -0.5 0
1.26667 -0.5 0
1.25 -0.483333 0
1.26667 -0.483333 0
1.26667 -0.5 0
1.28333 -0.5 0
1.26667 -0.483333 0
1.28333 -0.483333 0
1.28333 -0.5 0
1.3 -0.5 0
1.28333 -0.483333 0
1.3 -0.483333 0
1.3 -0.5 0
1.31667 -0.5 0
1.3 -0.483333 0
1.31667 -0.483333 0
1.31667 -0.5 0
1.33333 -0.5 0
1.31667 -0.483333 0
1.33333 -0.483333 0
1.33333 -0.5 0
1.35 -0.5 0
1.33333 -0.483333 0
1.35 -0.483333 0
1.35 -0.5 0
1.36667 -0.5 0
1.35 -0.483333 0
1.36667 -0.483333 0
1.36667 -0.5 0
1.38333 -0.5 0
1.36667 -0.483333 0
1.38333 -0.483333 0
1.38333 -0.5 0
1.4 -0.5 0
1.38333 -0.483333 0
1.4 -0.483333 0
1.4 -0.5 0
1.41667 -0.5 0
1.4 -0.483333 0
1.41667 -0.483333 0
1.41667 -0.5 0
1.43333 -0.5 0
1.41667 -0.483333 0
1.43333 -0.483333 0
1.43333 -0.5 0
1.45 -0.5 0
1.43333 -0.483333 0
1.45 -0.483333 0
1.45 -0.5 0
1.46667 -0.5 0
1.45 -0.483333 0
1.46667 -0.483333 0
1.46667 -0.5 0
1.48333 -0.5 0
1.46667 -0.483333 0
1.48333 -0.483333 0
1.48333 -0.5 0
1.5 -0.5 0
1.48333 -0.483333 0
1.5 -0.483333 0
1.5 -0.5 0
1.51667 -0.5 0
1.5 -0.483333 0
1.51667 -0.483333 0
1.51667 -0.5 0
1.53333 -0.5 0
1.51667 -0.483333 0
1.53333 -0.483333 0
1.53333 -0.5 0
1.55 -0.5 0
1.53333 -0.483333 0
1.55 -0.483333 0
1.55 -0.5 0
1.56667 -0.5 0
1.55 -0.483333 0
1.56667 -0.483333 0
1.56667 -0.5 0
1.58333 -0.5 0
1.56667 -0.483333 0
1.58333 -0.483333 0
1.58333 -0.5 0
1.6 -0.5 0
1.58333 -0.483333 0
1.6 -0.483333 0
1.6 -0.5 0
1.61667 -0.5 0
1.6 -0.483333 0
1.61667 -0.483333 0
1.61667 -0.5 0
1.63333 -0.5 0
1.61667 -0.483333 0
1.63333 -0.483333 0
1.63333 -0.5 0
1.65 -0.5 0
1.63333 -0.483333 0
1.65 -0.483333 0
1.65 -0.5 0
1.66667 -0.5 0
1.65 -0.483333 0
1.66667 -0.483333 0
1.66667 -0.5 0
1.68333 -0.5 0
1.66667 -0.483333 0
1.68333 -0.483333 0
1.68333 -0.5 0
1.7 -0.5 0
1.68333 -0.483333 0
1.7 -0.483333 0
1.7 -0.5 0
1.71667 -0.5 0
1.7 -0.483333 0
1.71667 -0.483333 0
1.71667 -0.5 0
1.73333 -0.5 0
1.71667 -0.483333 0
1.73333 -0.483333 0
1.73333 -0.5 0
1.75 -0.5 0
1.73333 -0.483333 0
1.75 -0.483333 0
1.75 -0.5 0
1.76667 -0.5 0
1.75 -0.483333 0
1.76667 -0.483333 0
1.76667 -0.5 0
1.78333 -0.5 0
1.76667 -0.483333 0
1.78333 -0.483333 0
1.78333 -0.5 0
1.8 -0.5 0
1.78333 -0.483333 0
1.8 -0.483333 0
1.8 -0.5 0
1.81667 -0.5 0
1.8 -0.483333 0
1.81667 -0.483333 0
1.81667 -0.5 0
1.83333 -0.5 0
1.81667 -0.483333 0
1.83333 -0.483333 0
1.83333 -0.5 0
1.85 -0.5 0
1.83333 -0.483333 0
1.85 -0.483333 0
1.85 -0.5 0
1.86667 -0.5 0
1.85 -0.483333 0
1.86667 -0.483333 0
1.86667 -0.5 0
1.88333 -0.5 0
1.86667 -0.483333 0
1.88333 -0.483333 0
1.88333 -0.5 0
1.9 -0.5 0
1.88333 -0.483333 0
1.9 -0.483333 0
1.9 -0.5 0
1.91667 -0.5 0
1.9 -0.483333 0
1.91667 -0.483333 0
1.91667 -0.5 0
1.93333 -0.5 0
1.91667 -0.483333 0
1.93333 -0.483333 0
1.93333 -0.5 0
1.95 -0.5 0
1.93333 -0.483333 0
1.95 -0.483333 0
1.95 -0.5 0
1.96667 -0.5 0
1.95 -0.483333 0
1.96667 -0.483333 0
1.96667 -0.5 0
1.98333 -0.5 0
1.96667 -0.483333 0
1.98333 -0.483333 0
1.98333 -0.5 0
2 -0.5 0
1.98333 -0.483333 0
2 -0.483333 0
2 -0.5 0
2.01667 -0.5 0
2 -0.483333 0
2.01667 -0.483333 0
2.01667 -0.5 0
2.03333 -0.5 0
2.01667 -0.483333 0
2.03333 -0.483333 0
2.03333 -0.5 0
2.05 -0.5 0
2.03333 -0.483333 0
2.05 -0.483333 0
2.05 -0.5 0
2.06667 -0.5 0
2.05 -0.483333 0
2.06667 -0.483333 0
2.06667 -0.5 0
2.08333 -0.5 0
2.06667 -0.483333 0
2.08333 -0.483333 0
2.08333 -0.5 0
2.1 -0.5 0
2.08333 -0.483333 0
2.1 -0.483333 0
2.1 -0.5 0
2.11667 -0.5 0
2.1 -0.483333 0
2.11667 -0.483333 0
2.11667 -0.5 0
2.13333 -0.5 0
2.11667 -0.483333 0
2.13333 -0.483333 0
2.13333 -0.5 0
2.15 -0.5 0
2.13333 -0.483333 0
2.15 -0.483333 0
2.15 -0.5 0
2.16667 -0.5 0
2.15 -0.483333 0
2.16667 -0.483333 0
2.16667 -0.5 0
2.18333 -0.5 0
2.16667 -0.483333 0
2.18333 -0.483333 0
2.18333 -0.5 0
2.2 -0.5 0
2.18333 -0.483333 0
2.2 -0.483333 0
2.2 -0.5 0
2.21667 -0.5 0
2.2 -0.483333 0
2.21667 -0.483333 0
2.21667 -0.5 0
2.23333 -0.5 0
2.21667 -0.483333 0
2.23333 -0.483333 0
2.23333 -0.5 0
2.25 -0.5 0
2.23333 -0.483333 0
2.25 -0.483333 0
2.25 -0.5 0
2.26667 -0.5 0
2.25 -0.483333 0
2.26667 -0.483333 0
2.26667 -0.5 0
2.28333 -0.5 0
2.26667 -0.483333 0
2.28333 -0.483333 0
2.28333 -0.5 0
2.3 -0.5 0
2.28333 -0.483333 0
2.3 -0.483333 0
2.3 -0.5 0
2.31667 -0.5 0
2.3 -0.483333 0
2.31667 -0.483333 0
2.31667 -0.5 0
2.33333 -0.5 0
2.31667 -0.483333 0
2.33333 -0.483333 0
2.33333 -0.5 0
2.35 -0.5 0
2.33333 -0.483333 0
2.35 -0.483333 0
2.35 -0.5 0
2.36667 -0.5 0
2.35 -0.483333 0
2.36667 -0.483333 0
2.36667 -0.5 0
2.38333 -0.5 0
2.36667 -0.483333 0
2.38333 -0.483333 0
2.38333 -0.5 0
2.4 -0.5 0
2.38333 -0.483333 0
2.4 -0.483333 0
2.4 -0.5 0
2.41667 -0.5 0
2.4 -0.483333 0
2.41667 -0.483333 0
2.41667 -0.5 0
2.43333 -0.5 0
2.41667 -0.483333 0
2.43333 -0.483333 0
2.43333 -0.5 0
2.45 -0.5 0
2.43333 -0.483333 0
2.45 -0.483333 0
2.45 -0.5 0
2.46667 -0.5 0
2.45 -0.483333 0
2.46667 -0.483333 0
2.46667 -0.5 0
[...]
POINT_DATA 43200
SCALARS x1_displacement double 1
LOOKUP_TABLE default
0 -0.00315777 0 -0.00150225 -0.00315777 -0.00534333 -0.00150225 -0.00371168 -0.00534333 -0.00711286 -0.00371168 -0.00573825 -0.00711286 -0.00860321 -0.00573825 -0.00753888 -0.00860321 -0.00891749 -0.00753888 -0.00883739 -0.00891749 -0.00855945 -0.00883739 -0.00886338 -0.00855945 -0.00809317 -0.00886338 -0.00847701 -0.00809317 -0.00753685 -0.00847701 -0.00796298 -0.00753685 -0.00690023 -0.00796298 -0.00736367 -0.00690023 -0.00620783 -0.00736367 -0.00670091 -0.00620783 -0.00547074 -0.00670091 -0.00599014 -0.00547074 -0.00469378 -0.00599014 -0.0052385 -0.00469378 -0.00387817 -0.0052385 -0.00445099 -0.00387817 -0.00302595 -0.00445099 -0.00363212 -0.00302595 -0.00214123 -0.00363212 -0.00278709 -0.00214123 -0.00123002 -0.00278709 -0.0019215 -0.00123002 -0.000299202 -0.0019215 -0.00104097 -0.000299202 0.00064449 -0.00104097 -0.000150699 0.00064449 0.00159506 -0.000150699 0.000744742 0.00159506 0.00254755 0.000744742 0.00164152 0.00254755 0.00349803 0.00164152 0.00253649 0.00349803 0.00444348 0.00253649 0.00342716 0.00444348 0.00538161 0.00342716 0.00431152 0.00538161 0.00631067 0.00431152 0.00518796 0.00631067 0.00722931 0.00518796 0.00605522 0.00722931 0.0081365 0.00605522 0.00691226 0.0081365 0.00903139 0.00691226 0.00775825 0.00903139 0.00991333 0.00775825 0.00859251 0.00991333 0.0107818 0.00859251 0.00941454 0.0107818 0.0116365 0.00941454 0.0102239 0.0116365 0.012477 0.0102239 0.0110204 0.012477 0.0133034 0.0110204 0.0118038 0.0133034 0.0141154 0.0118038 0.012574 0.0141154 0.0149133 0.012574 0.0133311 0.0149133 0.015697 0.0133311 0.0140752 0.015697 0.0164669 0.0140752 0.0148064 0.0164669 0.0172233 0.0148064 0.015525 0.0172233 0.0179665 0.015525 0.0162314 0.0179665 0.0186969 0.0162314 0.0169258 0.0186969 0.0194151 0.0169258 0.0176088 0.0194151 0.0201216 0.0176088 0.0182808 0.0201216 0.0208168 0.0182808 0.0189423 0.0208168 0.0215016 0.0189423 0.0195937 0.0215016 0.0221763 0.0195937 0.0202358 0.0221763 0.0228418 0.0202358 0.020869 0.0228418 0.0234986 0.020869 0.021494 0.0234986 0.0241474 0.021494 0.0221112 0.0241474 0.0247889 0.0221112 0.0227215 0.0247889 0.0254237 0.0227215 0.0233252 0.0254237 0.0260524 0.0233252 0.023923 0.0260524 0.0266758 0.023923 0.0245156 0.0266758 0.0272944 0.0245156 0.0251034 0.0272944 0.0279088 0.0251034 0.025687 0.0279088 0.0285196 0.025687 0.026267 0.0285196 0.0291274 0.026267 0.0268438 0.0291274 0.0297326 0.0268438 0.0274179 0.0297326 0.0303358 0.0274179 0.0279898 0.0303358 0.0309374 0.0279898 0.0285599 0.0309374 0.0315379 0.0285599 0.0291286 0.0315379 0.0321376 0.0291286 0.0296963 0.0321376 0.032737 0.0296963 0.0302633 0.032737 0.0333363 0.0302633 0.0308299 0.0333363 0.0339358 0.0308299 0.0313965 0.0339358 0.0345358 0.0313965 0.0319632 0.0345358 0.0351366 0.0319632 0.0325303 0.0351366 0.0357383 0.0325303 0.0330979 0.0357383 0.0363411 0.0330979 0.0336664 0.0363411 0.0369452 0.0336664 0.0342357 0.0369452 0.0375506 0.0342357 0.034806 0.0375506 0.0381575 0.034806 0.0353775 0.0381575 0.038766 0.0353775 0.0359501 0.038766 0.039376 0.0359501 0.0365239 0.039376 0.0399876 0.0365239 0.0370991 0.0399876 0.0406009 0.0370991 0.0376755 0.0406009 0.0412157 0.0376755 0.0382532 0.0412157 0.0418322 0.0382532 0.0388321 0.0418322 0.0424501 0.0388321 0.0394123 0.0424501 0.0430696 0.0394123 0.0399937 0.0430696 0.0436905 0.0399937 0.0405763 0.0436905 0.0443127 0.0405763 0.0411599 0.0443127 0.0449362 0.0411599 0.0417445 0.0449362 0.0455609 0.0417445 0.04233 0.0455609 0.0461866 0.04233 0.0429164 0.0461866 0.0468133 0.0429164 0.0435035 0.0468133 0.0474408 0.0435035 0.0440912 0.0474408 0.048069 0.0440912 0.0446795 0.048069 0.0486979 0.0446795 0.0452681 0.0486979 0.0493272 0.0452681 0.0458571 0.0493272 0.0499568 0.0458571 0.0464462 0.0499568 0.0505867 0.0464462 0.0470354 0.0505867 0.0512166 0.0470354 0.0476245 0.0512166 0.0518465 0.0476245 0.0482134 0.0518465 0.0524761 0.0482134 0.0488019 0.0524761 0.0531054 0.0488019 0.04939 0.0531054 0.0537342 0.04939 0.0499774 0.0537342 0.0543624 0.0499774 0.0505641 0.0543624 0.0549897 0.0505641 0.0511499 0.0549897 0.0556161 0.0511499 0.0517347 0.0556161 0.0562414 0.0517347 0.0523182 0.0562414 0.0568654 0.0523182 0.0529004 0.0568654 0.057488 0.0529004 0.0534812 0.057488 0.058109 0.0534812 0.0540602 0.058109 0.0587282 0.0540602 0.0546375 0.0587282 0.0593456 0.0546375 0.0552128 0.0593456 0.0599608 0.0552128 0.055786 0.0599608 0.0605738 0.055786 0.0563569 0.0605738 0.0611843 0.0563569 0.0569253 0.0611843 0.0617922 0.0569253 0.057491 0.0617922 0.0623973 0.057491 0.058054 0.0623973 0.0629994 0.058054 0.0586139 0.0629994 0.0635983 0.0586139 0.0591707 0.0635983 0.0641938 0.0591707 0.059724 0.0641938 0.0647857 0.059724 0.0602738 0.0647857 0.0653739 0.0602738 0.0608198 0.0653739 0.0659579 0.0608198 0.0613619 0.0659579 0.0665378 0.0613619 0.0618998 0.0665378 0.0671132 0.0618998 0.0624332 0.0671132 0.0676839 0.0624332 0.0629621 0.0676839 0.0682497 0.0629621 0.0634861 0.0682497 0.0688104 0.0634861 0.0640051 0.0688104 0.0693656 0.0640051 0.0645188 0.0693656 0.0699152 0.0645188 0.065027 0.0699152 0.0704589 0.065027 0.0655294 0.0704589 0.0709965 0.0655294 0.0660259 0.0709965 0.0715277 0.0660259 0.0665161 0.0715277 0.0720522 0.0665161 0.0669998 0.0720522 0.0725698 0.0669998 0.0674768 0.0725698 0.0730803 0.0674768 0.0679469 0.0730803 0.0735833 0.0679469 0.0684098 0.0735833 0.0740786 0.0684098 0.0688652 0.0740786 0.0745659 0.0688652 0.0693129 0.0745659 0.075045 0.0693129 0.0697526 0.075045 0.0755157 0.0697526 0.0701841 0.0755157 0.0759776 0.0701841 0.0706072 0.0759776 0.0764304 0.0706072 0.0710217 0.0764304 0.076874 0.0710217 0.0714271 0.076874 0.0773081 0.0714271 0.0718234 0.0773081 0.0777324 0.0718234 0.0722103 0.0777324 0.0781466 0.0722103 0.0725874 0.0781466 0.0785504 0.0725874 0.0729547 0.0785504 0.0789437 0.0729547 0.0733117 0.0789437 0.079326 0.0733117 0.0736583 0.079326 0.0796971 0.0736583 0.0739942 0.0796971 0.0800568 0.0739942 0.0743191 0.0800568 0.0804047 0.0743191 0.0746327 0.0804047 0.0807405 0.0746327 0.0749348 0.0807405 0.0810638 0.0749348 0.0752252 0.0810638 0.0813744 0.0752252 0.0755034 0.0813744 0.0816719 0.0755034 0.0757692 0.0816719 0.0819559 0.0757692 0.0760223 0.0819559 0.0822262 0.0760223 0.0762624 0.0822262 0.0824822 0.0762624 0.0764893 0.0824822 0.0827238 0.0764893 0.0767025 0.0827238 0.0829503 0.0767025 0.0769019 0.0829503 0.0831616 0.0769019 0.0770869 0.0831616 0.083357 0.0770869 0.0772574 0.083357 0.0835361 0.0772574 0.077413 0.0835361 0.0836984 0.077413 0.0775532 0.0836984 0.0838432 0.0775532 0.0776775 0.0838432 0.0839697 0.0776775 0.0777855 0.0839697 0.084077 0.0777855 0.0778764 0.084077 0.0841638 0.0778764 0.0779495 0.0841638 0.0842286 0.0779495 0.0780038 0.0842286 0.0842695 0.0780038 0.0780382 0.0842695 0.084284 0.0780382 0.0780511 0.084284 0.0842691 0.0780511 0.078041 0.0842691 0.0842208 0.078041 0.0780058 0.0842208 0.0841343 0.0780058 0.0779432 0.0841343 0.0840031 0.0779432 0.0778508 0.0840031 0.0838189 0.0778508 0.0777261 0.0838189 0.0835709 0.0777261 0.0775671 0.0835709 0.0832443 0.0775671 0.0773737 0.0832443 0.08282 0.0773737 0.0771499 0.08282 0.0822776 0.0771499 0.0769078 0.0822776 0.0816105 0.0769078 0.0766726 0.0816105 0.0809303 0.0766726 0.0764524 0.0809303 0.080497 0.0764524 0.0758224 0.080497 0.079213 0.0758224 0.0743113 0.079213 0.077662 0.0743113 0.0726489 0.077662 0.0760242 0.0726489 0.0709621 0 -0.00150225 0 -0.00116033 -0.00150225 -0.00371168 -0.00116033 -0.00284854 -0.00371168 -0.00573825 -0.00284854 -0.00475538 -0.00573825 -0.00753888 -0.00475538 -0.00660205 -0.00753888 -0.00883739 -0.00660205 -0.00828093 -0.00883739 -0.00886338 -0.00828093 -0.00939266 -0.00886338 -0.00847701 -0.00939266 -0.0091565 -0.00847701 -0.00796298 -0.0091565 -0.00860817 -0.00796298 -0.00736367 -0.00860817 -0.00798738 -0.00736367 -0.00670091 -0.00798738 -0.00731895 -0.00670091 -0.00599014 -0.00731895 -0.00661196 -0.00599014 -0.0052385 -0.00661196 -0.00587144 -0.0052385 -0.00445099 -0.00587144 -0.00509986 -0.00445099 -0.00363212 -0.00509986 -0.00430199 -0.00363212 -0.00278709 -0.00430199 -0.00348351 -0.00278709 -0.0019215 -0.00348351 -0.00265026 -0.0019215 -0.00104097 -0.00265026 -0.00180744 -0.00104097 -0.000150699 -0.00180744 -0.000959367 -0.000150699 0.000744742 -0.000959367 -0.000109481 0.000744742 0.00164152 -0.000109481 0.000739479 0.00164152 0.00253649 0.000739479 0.00158533 0.00253649 0.00342716 0.00158533 0.00242631 0.00342716 0.00431152 0.00242631 0.00326095 0.00431152 0.00518796 0.00326095 0.00408804 0.00518796 0.00605522 0.00408804 0.00490652 0.00605522 0.00691226 0.00490652 0.00571551 0.00691226 0.00775825 0.00571551 0.00651426 0.00775825 0.00859251 0.00651426 0.00730216 0.00859251 0.00941454 0.00730216 0.00807871 0.00941454 0.0102239 0.00807871 0.00884352 0.0102239 0.0110204 0.00884352 0.00959632 0.0110204 0.0118038 0.00959632 0.0103369 0.0118038 0.012574 0.0103369 0.0110653 0.012574 0.0133311 0.0110653 0.0117814 0.0133311 0.0140752 0.0117814 0.0124853 0.0140752 0.0148064 0.0124853 0.0131772 0.0148064 0.015525 0.0131772 0.0138573 0.015525 0.0162314 0.0138573 0.0145259 0.0162314 0.0169258 0.0145259 0.0151834 0.0169258 0.0176088 0.0151834 0.01583 0.0176088 0.0182808 0.01583 0.0164662 0.0182808 0.0189423 0.0164662 0.0170925 0.0189423 0.0195937 0.0170925 0.0177094 0.0195937 0.0202358 0.0177094 0.0183173 0.0202358 0.020869 0.0183173 0.0189168 0.020869 0.021494 0.0189168 0.0195085 0.021494 0.0221112 0.0195085 0.0200927 0.0221112 0.0227215 0.0200927 0.0206702 0.0227215 0.0233252 0.0206702 0.0212414 0.0233252 0.023923 0.0212414 0.0218069 0.023923 0.0245156 0.0218069 0.0223672 0.0245156 0.0251034 0.0223672 0.0229229 0.0251034 0.025687 0.0229229 0.0234744 0.025687 0.026267 0.0234744 0.0240222 0.026267 0.0268438 0.0240222 0.0245668 0.0268438 0.0274179 0.0245668 0.0251087 0.0274179 0.0279898 0.0251087 0.0256482 0.0279898 0.0285599 0.0256482 0.0261858 0.0285599 0.0291286 0.0261858 0.0267218 0.0291286 0.0296963 0.0267218 0.0272566 0.0296963 0.0302633 0.0272566 0.0277905 0.0302633 0.0308299 0.0277905 0.0283238 0.0308299 0.0313965 0.0283238 0.0288567 0.0313965 0.0319632 0.0288567 0.0293896 0.0319632 0.0325303 0.0293896 0.0299225 0.0325303 0.0330979 0.0299225 0.0304557 0.0330979 0.0336664 0.0304557 0.0309894 0.0336664 0.0342357 0.0309894 0.0315237 0.0342357 0.034806 0.0315237 0.0320587 0.034806 0.0353775 0.0320587 0.0325945 0.0353775 0.0359501 0.0325945 0.0331311 0.0359501 0.0365239 0.0331311 0.0336688 0.0365239 0.0370991 0.0336688 0.0342073 0.0370991 0.0376755 0.0342073 0.0347469 0.0376755 0.0382532 0.0347469 0.0352875 0.0382532 0.0388321 0.0352875 0.035829 0.0388321 0.0394123 0.035829 0.0363716 0.0394123 0.0399937 0.0363716 0.036915 0.0399937 0.0405763 0.036915 0.0374594 0.0405763 0.0411599 0.0374594 0.0380045 0.0411599 0.0417445 0.0380045 0.0385505 0.0417445 0.04233 0.0385505 0.0390971 0.04233 0.0429164 0.0390971 0.0396443 0.0429164 0.0435035 0.0396443 0.0401921 0.0435035 0.0440912 0.0401921 0.0407403 0.0440912 0.0446795 0.0407403 0.0412889 0.0446795 0.0452681 0.0412889 0.0418376 0.0452681 0.0458571 0.0418376 0.0423865 0.0458571 0.0464462 0.0423865 0.0429355 0.0464462 0.0470354 0.0429355 0.0434843 0.0470354 0.0476245 0.0434843 0.0440328 0.0476245 0.0482134 0.0440328 0.0445811 0.0482134 0.0488019 0.0445811 0.0451289 0.0488019 0.04939 0.0451289 0.045676 0.04939 0.0499774 0.045676 0.0462225 0.0499774 0.0505641 0.0462225 0.0467681 0.0505641 0.0511499 0.0467681 0.0473127 0.0511499 0.0517347 0.0473127 0.0478562 0.0517347 0.0523182 0.0478562 0.0483984 0.0523182 0.0529004 0.0483984 0.0489392 0.0529004 0.0534812 0.0489392 0.0494785 0.0534812 0.0540602 0.0494785 0.050016 0.0540602 0.0546375 0.050016 0.0505517 0.0546375 0.0552128 0.0505517 0.0510854 0.0552128 0.055786 0.0510854 0.0516169 0.055786 0.0563569 0.0516169 0.0521461 0.0563569 0.0569253 0.0521461 0.0526728 0.0569253 0.057491 0.0526728 0.0531969 0.057491 0.058054 0.0531969 0.0537181 0.058054 0.0586139 0.0537181 0.0542363 0.0586139 0.0591707 0.0542363 0.0547514 0.0591707 0.059724 0.0547514 0.0552631 0.059724 0.0602738 0.0552631 0.0557713 0.0602738 0.0608198 0.0557713 0.0562757 0.0608198 0.0613619 0.0562757 0.0567763 0.0613619 0.0618998 0.0567763 0.0572727 0.0618998 0.0624332 0.0572727 0.0577648 0.0624332 0.0629621 0.0577648 0.0582523 0.0629621 0.0634861 0.0582523 0.0587352 0.0634861 0.0640051 0.0587352 0.059213 0.0640051 0.0645188 0.059213 0.0596858 0.0645188 0.065027 0.0596858 0.0601531 0.065027 0.0655294 0.0601531 0.0606148 0.0655294 0.0660259 0.0606148 0.0610707 0.0660259 0.0665161 0.0610707 0.0615206 0.0665161 0.0669998 0.0615206 0.0619642 0.0669998 0.0674768 0.0619642 0.0624012 0.0674768 0.0679469 0.0624012 0.0628315 0.0679469 0.0684098 0.0628315 0.0632548 0.0684098 0.0688652 0.0632548 0.0636709 0.0688652 0.0693129 0.0636709 0.0640796 0.0693129 0.0697526 0.0640796 0.0644806 0.0697526 0.0701841 0.0644806 0.0648737 0.0701841 0.0706072 0.0648737 0.0652586 0.0706072 0.0710217 0.0652586 0.0656352 0.0710217 0.0714271 0.0656352 0.0660031 0.0714271 0.0718234 0.0660031 0.0663622 0.0718234 0.0722103 0.0663622 0.0667123 0.0722103 0.0725874 0.0667123 0.0670531 0.0725874 0.0729547 0.0670531 0.0673843 0.0729547 0.0733117 0.0673843 0.0677058 0.0733117 0.0736583 0.0677058 0.0680173 0.0736583 0.0739942 0.0680173 0.0683186 0.0739942 0.0743191 0.0683186 0.0686094 0.0743191 0.0746327 0.0686094 0.0688895 0.0746327 0.0749348 0.0688895 0.0691587 0.0749348 0.0752252 0.0691587 0.0694167 0.0752252 0.0755034 0.0694167 0.0696632 0.0755034 0.0757692 0.0696632 0.0698981 0.0757692 0.0760223 0.0698981 0.0701211 0.0760223 0.0762624 0.0701211 0.0703318 0.0762624 0.0764893 0.0703318 0.0705302 0.0764893 0.0767025 0.0705302 0.070716 0.0767025 0.0769019 0.070716 0.0708889 0.0769019 0.0770869 0.0708889 0.0710487 0.0770869 0.0772574 0.0710487 0.0711952 0.0772574 0.077413 0.0711952 0.0713282 0.077413 0.0775532 0.0713282 0.0714474 0.0775532 0.0776775 0.0714474 0.0715527 0.0776775 0.0777855 0.0715527 0.0716438 0.0777855 0.0778764 0.0716438 0.0717205 0.0778764 0.0779495 0.0717205 0.0717824 0.0779495 0.0780038 0.0717824 0.0718292 0.0780038 0.0780382 0.0718292 0.0718606 0.0780382 0.0780511 0.0718606 0.0718764 0.0780511 0.078041 0.0718764 0.0718762 0.078041 0.0780058 0.0718762 0.07186 0.0780058 0.0779432 0.07186 0.071828 0.0779432 0.0778508 0.071828 0.0717814 0.0778508 0.0777261 0.0717814 0.0717223 0.0777261 0.0775671 0.0717223 0.0716551 0.0775671 0.0773737 0.0716551 0.0715872 0.0773737 0.0771499 0.0715872 0.0715291 0.0771499 0.0769078 0.0715291 0.0714882 0.0769078 0.0766726 0.0714882 0.0714429 0.0766726 0.0764524 0.0714429 0.0712543 0.0764524 0.0758224 0.0712543 0.0706638 0.0758224 0.0743113 0.0706638 0.069193 0.0743113 0.0726489 0.069193 0.0675484 0.0726489 0.0709621 0.0675484 0.0658443 0 -0.00116033 0 -0.000923704 -0.00116033 -0.00284854 -0.000923704 -0.00235255 -0.00284854 -0.00475538 -0.00235255 -0.003974 -0.00475538 -0.00660205 -0.003974 -0.00566505 -0.00660205 -0.00828093 -0.00566505 -0.00735777 -0.00828093 -0.00939266 -0.00735777 -0.00893827 -0.00939266 -0.0091565 -0.00893827 -0.00992099 -0.0091565 -0.00860817 -0.00992099 -0.00947431 -0.00860817 -0.00798738 -0.00947431 -0.00877344 -0.00798738 -0.00731895 -0.00877344 -0.00805765 -0.00731895 -0.00661196 -0.00805765 -0.00732903 -0.00661196 -0.00587144 -0.00732903 -0.00657931 -0.00587144 -0.00509986 -0.00657931 -0.00580816 -0.00509986 -0.00430199 -0.00580816 -0.00501814 -0.00430199 -0.00348351 -0.00501814 -0.00421481 -0.00348351 -0.00265026 -0.00421481 -0.00340383 -0.00265026 -0.00180744 -0.00340383 -0.00258978 -0.00180744 -0.000959367 -0.00258978 -0.00177602 -0.000959367 -0.000109481 -0.00177602 -0.000964838 -0.000109481 0.000739479 -0.000964838 -0.000157812 0.000739479 0.00158533 -0.000157812 0.000643907 0.00158533 0.00242631 0.000643907 0.0014394 0.00242631 0.00326095 0.0014394 0.00222786 0.00326095 0.00408804 0.00222786 0.00300852 0.00408804 0.00490652 0.00300852 0.00378067 0.00490652 0.00571551 0.00378067 0.00454363 0.00571551 0.00651426 0.00454363 0.00529679 0.00651426 0.00730216 0.00529679 0.00603963 0.00730216 0.00807871 0.00603963 0.00677169 0.00807871 0.00884352 0.00677169 0.00749264 0.00884352 0.00959632 0.00749264 0.00820223 0.00959632 0.0103369 0.00820223 0.0089003 0.0103369 0.0110653 0.0089003 0.00958679 0.0110653 0.0117814 0.00958679 0.0102617 0.0117814 0.0124853 0.0102617 0.0109251 0.0124853 0.0131772 0.0109251 0.0115772 0.0131772 0.0138573 0.0115772 0.0122181 0.0138573 0.0145259 0.0122181 0.0128481 0.0145259 0.0151834 0.0128481 0.0134676 0.0151834 0.01583 0.0134676 0.0140769 0.01583 0.0164662 0.0140769 0.0146763 0.0164662 0.0170925 0.0146763 0.0152663 0.0170925 0.0177094 0.0152663 0.0158473 0.0177094 0.0183173 0.0158473 0.0164198 0.0183173 0.0189168 0.0164198 0.0169843 0.0189168 0.0195085 0.0169843 0.0175412 0.0195085 0.0200927 0.0175412 0.0180912 0.0200927 0.0206702 0.0180912 0.0186346 0.0206702 0.0212414 0.0186346 0.0191719 0.0212414 0.0218069 0.0191719 0.0197038 0.0218069 0.0223672 0.0197038 0.0202306 0.0223672 0.0229229 0.0202306 0.0207528 0.0229229 0.0234744 0.0207528 0.021271 0.0234744 0.0240222 0.021271 0.0217855 0.0240222 0.0245668 0.0217855 0.0222969 0.0245668 0.0251087 0.0222969 0.0228054 0.0251087 0.0256482 0.0228054 0.0233116 0.0256482 0.0261858 0.0233116 0.0238157 0.0261858 0.0267218 0.0238157 0.0243182 0.0267218 0.0272566 0.0243182 0.0248193 0.0272566 0.0277905 0.0248193 0.0253194 0.0277905 0.0283238 0.0253194 0.0258187 0.0283238 0.0288567 0.0258187 0.0263174 0.0288567 0.0293896 0.0263174 0.0268158 0.0293896 0.0299225 0.0268158 0.0273141 0.0299225 0.0304557 0.0273141 0.0278125 0.0304557 0.0309894 0.0278125 0.0283111 0.0309894 0.0315237 0.0283111 0.02881 0.0315237 0.0320587 0.02881 0.0293094 0.0320587 0.0325945 0.0293094 0.0298094 0.0325945 0.0331311 0.0298094 0.03031 0.0331311 0.0336688 0.03031 0.0308112 0.0336688 0.0342073 0.0308112 0.0313132 0.0342073 0.0347469 0.0313132 0.0318159 0.0347469 0.0352875 0.0318159 0.0323194 0.0352875 0.035829 0.0323194 0.0328236 0.035829 0.0363716 0.0328236 0.0333285 0.0363716 0.036915 0.0333285 0.0338341 0.036915 0.0374594 0.0338341 0.0343404 0.0374594 0.0380045 0.0343404 0.0348473 0.0380045 0.0385505 0.0348473 0.0353547 0.0385505 0.0390971 0.0353547 0.0358627 0.0390971 0.0396443 0.0358627 0.036371 0.0396443 0.0401921 0.036371 0.0368797 0.0401921 0.0407403 0.0368797 0.0373886 0.0407403 0.0412889 0.0373886 0.0378977 0.0412889 0.0418376 0.0378977 0.0384069 0.0418376 0.0423865 0.0384069 0.038916 0.0423865 0.0429355 0.038916 0.039425 0.0429355 0.0434843 0.039425 0.0399337 0.0434843 0.0440328 0.0399337 0.0404421 0.0440328 0.0445811 0.0404421 0.04095 0.0445811 0.0451289 0.04095 0.0414573 0.0451289 0.045676 0.0414573 0.0419639 0.045676 0.0462225 0.0419639 0.0424697 0.0462225 0.0467681 0.0424697 0.0429746 0.0467681 0.0473127 0.0429746 0.0434783 0.0473127 0.0478562 0.0434783 0.0439809 0.0478562 0.0483984 0.0439809 0.0444821 0.0483984 0.0489392 0.0444821 0.0449819 0.0489392 0.0494785 0.0449819 0.04548 0.0494785 0.050016 0.04548 0.0459764 0.050016 0.0505517 0.0459764 0.0464709 0.0505517 0.0510854 0.0464709 0.0469633 0.0510854 0.0516169 0.0469633 0.0474536 0.0516169 0.0521461 0.0474536 0.0479415 0.0521461 0.0526728 0.0479415 0.048427 0.0526728 0.0531969 0.048427 0.0489097 0.0531969 0.0537181 0.0489097 0.0493897 0.0537181 0.0542363 0.0493897 0.0498667 0.0542363 0.0547514 0.0498667 0.0503405 0.0547514 0.0552631 0.0503405 0.050811 0.0552631 0.0557713 0.050811 0.0512781 0.0557713 0.0562757 0.0512781 0.0517414 0.0562757 0.0567763 0.0517414 0.0522009 0.0567763 0.0572727 0.0522009 0.0526564 0.0572727 0.0577648 0.0526564 0.0531076 0.0577648 0.0582523 0.0531076 0.0535544 0.0582523 0.0587352 0.0535544 0.0539965 0.0587352 0.059213 0.0539965 0.0544338 0.059213 0.0596858 0.0544338 0.0548661 0.0596858 0.0601531 0.0548661 0.0552932 0.0601531 0.0606148 0.0552932 0.0557148 0.0606148 0.0610707 0.0557148 0.0561307 0.0610707 0.0615206 0.0561307 0.0565408 0.0615206 0.0619642 0.0565408 0.0569447 0.0619642 0.0624012 0.0569447 0.0573424 0.0624012 0.0628315 0.0573424 0.0577335 0.0628315 0.0632548 0.0577335 0.0581179 0.063