# vtk DataFile Version 3.0
#This file was generated by the deal.II library on 2021/2/9 at 23:17:41
ASCII
DATASET UNSTRUCTURED_GRID

POINTS 43200 double
0 -0.5 0
0.0166667 -0.5 0
0 -0.483333 0
0.0166667 -0.483333 0
0.0166667 -0.5 0
0.0333333 -0.5 0
0.0166667 -0.483333 0
0.0333333 -0.483333 0
0.0333333 -0.5 0
0.05 -0.5 0
0.0333333 -0.483333 0
0.05 -0.483333 0
0.05 -0.5 0
0.0666667 -0.5 0
0.05 -0.483333 0
0.0666667 -0.483333 0
0.0666667 -0.5 0
0.0833333 -0.5 0
0.0666667 -0.483333 0
0.0833333 -0.483333 0
0.0833333 -0.5 0
0.1 -0.5 0
0.0833333 -0.483333 0
0.1 -0.483333 0
0.1 -0.5 0
0.116667 -0.5 0
0.1 -0.483333 0
0.116667 -0.483333 0
0.116667 -0.5 0
0.133333 -0.5 0
0.116667 -0.483333 0
0.133333 -0.483333 0
0.133333 -0.5 0
0.15 -0.5 0
0.133333 -0.483333 0
0.15 -0.483333 0
0.15 -0.5 0
0.166667 -0.5 0
0.15 -0.483333 0
0.166667 -0.483333 0
0.166667 -0.5 0
0.183333 -0.5 0
0.166667 -0.483333 0
0.183333 -0.483333 0
0.183333 -0.5 0
0.2 -0.5 0
0.183333 -0.483333 0
0.2 -0.483333 0
0.2 -0.5 0
0.216667 -0.5 0
0.2 -0.483333 0
0.216667 -0.483333 0
0.216667 -0.5 0
0.233333 -0.5 0
0.216667 -0.483333 0
0.233333 -0.483333 0
0.233333 -0.5 0
0.25 -0.5 0
0.233333 -0.483333 0
0.25 -0.483333 0
0.25 -0.5 0
0.266667 -0.5 0
0.25 -0.483333 0
0.266667 -0.483333 0
0.266667 -0.5 0
0.283333 -0.5 0
0.266667 -0.483333 0
0.283333 -0.483333 0
0.283333 -0.5 0
0.3 -0.5 0
0.283333 -0.483333 0
0.3 -0.483333 0
0.3 -0.5 0
0.316667 -0.5 0
0.3 -0.483333 0
0.316667 -0.483333 0
0.316667 -0.5 0
0.333333 -0.5 0
0.316667 -0.483333 0
0.333333 -0.483333 0
0.333333 -0.5 0
0.35 -0.5 0
0.333333 -0.483333 0
0.35 -0.483333 0
0.35 -0.5 0
0.366667 -0.5 0
0.35 -0.483333 0
0.366667 -0.483333 0
0.366667 -0.5 0
0.383333 -0.5 0
0.366667 -0.483333 0
0.383333 -0.483333 0
0.383333 -0.5 0
0.4 -0.5 0
0.383333 -0.483333 0
0.4 -0.483333 0
0.4 -0.5 0
0.416667 -0.5 0
0.4 -0.483333 0
0.416667 -0.483333 0
0.416667 -0.5 0
0.433333 -0.5 0
0.416667 -0.483333 0
0.433333 -0.483333 0
0.433333 -0.5 0
0.45 -0.5 0
0.433333 -0.483333 0
0.45 -0.483333 0
0.45 -0.5 0
0.466667 -0.5 0
0.45 -0.483333 0
0.466667 -0.483333 0
0.466667 -0.5 0
0.483333 -0.5 0
0.466667 -0.483333 0
0.483333 -0.483333 0
0.483333 -0.5 0
0.5 -0.5 0
0.483333 -0.483333 0
0.5 -0.483333 0
0.5 -0.5 0
0.516667 -0.5 0
0.5 -0.483333 0
0.516667 -0.483333 0
0.516667 -0.5 0
0.533333 -0.5 0
0.516667 -0.483333 0
0.533333 -0.483333 0
0.533333 -0.5 0
0.55 -0.5 0
0.533333 -0.483333 0
0.55 -0.483333 0
0.55 -0.5 0
0.566667 -0.5 0
0.55 -0.483333 0
0.566667 -0.483333 0
0.566667 -0.5 0
0.583333 -0.5 0
0.566667 -0.483333 0
0.583333 -0.483333 0
0.583333 -0.5 0
0.6 -0.5 0
0.583333 -0.483333 0
0.6 -0.483333 0
0.6 -0.5 0
0.616667 -0.5 0
0.6 -0.483333 0
0.616667 -0.483333 0
0.616667 -0.5 0
0.633333 -0.5 0
0.616667 -0.483333 0
0.633333 -0.483333 0
0.633333 -0.5 0
0.65 -0.5 0
0.633333 -0.483333 0
0.65 -0.483333 0
0.65 -0.5 0
0.666667 -0.5 0
0.65 -0.483333 0
0.666667 -0.483333 0
0.666667 -0.5 0
0.683333 -0.5 0
0.666667 -0.483333 0
0.683333 -0.483333 0
0.683333 -0.5 0
0.7 -0.5 0
0.683333 -0.483333 0
0.7 -0.483333 0
0.7 -0.5 0
0.716667 -0.5 0
0.7 -0.483333 0
0.716667 -0.483333 0
0.716667 -0.5 0
0.733333 -0.5 0
0.716667 -0.483333 0
0.733333 -0.483333 0
0.733333 -0.5 0
0.75 -0.5 0
0.733333 -0.483333 0
0.75 -0.483333 0
0.75 -0.5 0
0.766667 -0.5 0
0.75 -0.483333 0
0.766667 -0.483333 0
0.766667 -0.5 0
0.783333 -0.5 0
0.766667 -0.483333 0
0.783333 -0.483333 0
0.783333 -0.5 0
0.8 -0.5 0
0.783333 -0.483333 0
0.8 -0.483333 0
0.8 -0.5 0
0.816667 -0.5 0
0.8 -0.483333 0
0.816667 -0.483333 0
0.816667 -0.5 0
0.833333 -0.5 0
0.816667 -0.483333 0
0.833333 -0.483333 0
0.833333 -0.5 0
0.85 -0.5 0
0.833333 -0.483333 0
0.85 -0.483333 0
0.85 -0.5 0
0.866667 -0.5 0
0.85 -0.483333 0
0.866667 -0.483333 0
0.866667 -0.5 0
0.883333 -0.5 0
0.866667 -0.483333 0
0.883333 -0.483333 0
0.883333 -0.5 0
0.9 -0.5 0
0.883333 -0.483333 0
0.9 -0.483333 0
0.9 -0.5 0
0.916667 -0.5 0
0.9 -0.483333 0
0.916667 -0.483333 0
0.916667 -0.5 0
0.933333 -0.5 0
0.916667 -0.483333 0
0.933333 -0.483333 0
0.933333 -0.5 0
0.95 -0.5 0
0.933333 -0.483333 0
0.95 -0.483333 0
0.95 -0.5 0
0.966667 -0.5 0
0.95 -0.483333 0
0.966667 -0.483333 0
0.966667 -0.5 0
0.983333 -0.5 0
0.966667 -0.483333 0
0.983333 -0.483333 0
0.983333 -0.5 0
1 -0.5 0
0.983333 -0.483333 0
1 -0.483333 0
1 -0.5 0
1.01667 -0.5 0
1 -0.483333 0
1.01667 -0.483333 0
1.01667 -0.5 0
1.03333 -0.5 0
1.01667 -0.483333 0
1.03333 -0.483333 0
1.03333 -0.5 0
1.05 -0.5 0
1.03333 -0.483333 0
1.05 -0.483333 0
1.05 -0.5 0
1.06667 -0.5 0
1.05 -0.483333 0
1.06667 -0.483333 0
1.06667 -0.5 0
1.08333 -0.5 0
1.06667 -0.483333 0
1.08333 -0.483333 0
1.08333 -0.5 0
1.1 -0.5 0
1.08333 -0.483333 0
1.1 -0.483333 0
1.1 -0.5 0
1.11667 -0.5 0
1.1 -0.483333 0
1.11667 -0.483333 0
1.11667 -0.5 0
1.13333 -0.5 0
1.11667 -0.483333 0
1.13333 -0.483333 0
1.13333 -0.5 0
1.15 -0.5 0
1.13333 -0.483333 0
1.15 -0.483333 0
1.15 -0.5 0
1.16667 -0.5 0
1.15 -0.483333 0
1.16667 -0.483333 0
1.16667 -0.5 0
1.18333 -0.5 0
1.16667 -0.483333 0
1.18333 -0.483333 0
1.18333 -0.5 0
1.2 -0.5 0
1.18333 -0.483333 0
1.2 -0.483333 0
1.2 -0.5 0
1.21667 -0.5 0
1.2 -0.483333 0
1.21667 -0.483333 0
1.21667 -0.5 0
1.23333 -0.5 0
1.21667 -0.483333 0
1.23333 -0.483333 0
1.23333 -0.5 0
1.25 -0.5 0
1.23333 -0.483333 0
1.25 -0.483333 0
1.25 -0.5 0
1.26667 -0.5 0
1.25 -0.483333 0
1.26667 -0.483333 0
1.26667 -0.5 0
1.28333 -0.5 0
1.26667 -0.483333 0
1.28333 -0.483333 0
1.28333 -0.5 0
1.3 -0.5 0
1.28333 -0.483333 0
1.3 -0.483333 0
1.3 -0.5 0
1.31667 -0.5 0
1.3 -0.483333 0
1.31667 -0.483333 0
1.31667 -0.5 0
1.33333 -0.5 0
1.31667 -0.483333 0
1.33333 -0.483333 0
1.33333 -0.5 0
1.35 -0.5 0
1.33333 -0.483333 0
1.35 -0.483333 0
1.35 -0.5 0
1.36667 -0.5 0
1.35 -0.483333 0
1.36667 -0.483333 0
1.36667 -0.5 0
1.38333 -0.5 0
1.36667 -0.483333 0
1.38333 -0.483333 0
1.38333 -0.5 0
1.4 -0.5 0
1.38333 -0.483333 0
1.4 -0.483333 0
1.4 -0.5 0
1.41667 -0.5 0
1.4 -0.483333 0
1.41667 -0.483333 0
1.41667 -0.5 0
1.43333 -0.5 0
1.41667 -0.483333 0
1.43333 -0.483333 0
1.43333 -0.5 0
1.45 -0.5 0
1.43333 -0.483333 0
1.45 -0.483333 0
1.45 -0.5 0
1.46667 -0.5 0
1.45 -0.483333 0
1.46667 -0.483333 0
1.46667 -0.5 0
1.48333 -0.5 0
1.46667 -0.483333 0
1.48333 -0.483333 0
1.48333 -0.5 0
1.5 -0.5 0
1.48333 -0.483333 0
1.5 -0.483333 0
1.5 -0.5 0
1.51667 -0.5 0
1.5 -0.483333 0
1.51667 -0.483333 0
1.51667 -0.5 0
1.53333 -0.5 0
1.51667 -0.483333 0
1.53333 -0.483333 0
1.53333 -0.5 0
1.55 -0.5 0
1.53333 -0.483333 0
1.55 -0.483333 0
1.55 -0.5 0
1.56667 -0.5 0
1.55 -0.483333 0
1.56667 -0.483333 0
1.56667 -0.5 0
1.58333 -0.5 0
1.56667 -0.483333 0
1.58333 -0.483333 0
1.58333 -0.5 0
1.6 -0.5 0
1.58333 -0.483333 0
1.6 -0.483333 0
1.6 -0.5 0
1.61667 -0.5 0
1.6 -0.483333 0
1.61667 -0.483333 0
1.61667 -0.5 0
1.63333 -0.5 0
1.61667 -0.483333 0
1.63333 -0.483333 0
1.63333 -0.5 0
1.65 -0.5 0
1.63333 -0.483333 0
1.65 -0.483333 0
1.65 -0.5 0
1.66667 -0.5 0
1.65 -0.483333 0
1.66667 -0.483333 0
1.66667 -0.5 0
1.68333 -0.5 0
1.66667 -0.483333 0
1.68333 -0.483333 0
1.68333 -0.5 0
1.7 -0.5 0
1.68333 -0.483333 0
1.7 -0.483333 0
1.7 -0.5 0
1.71667 -0.5 0
1.7 -0.483333 0
1.71667 -0.483333 0
1.71667 -0.5 0
1.73333 -0.5 0
1.71667 -0.483333 0
1.73333 -0.483333 0
1.73333 -0.5 0
1.75 -0.5 0
1.73333 -0.483333 0
1.75 -0.483333 0
1.75 -0.5 0
1.76667 -0.5 0
1.75 -0.483333 0
1.76667 -0.483333 0
1.76667 -0.5 0
1.78333 -0.5 0
1.76667 -0.483333 0
1.78333 -0.483333 0
1.78333 -0.5 0
1.8 -0.5 0
1.78333 -0.483333 0
1.8 -0.483333 0
1.8 -0.5 0
1.81667 -0.5 0
1.8 -0.483333 0
1.81667 -0.483333 0
1.81667 -0.5 0
1.83333 -0.5 0
1.81667 -0.483333 0
1.83333 -0.483333 0
1.83333 -0.5 0
1.85 -0.5 0
1.83333 -0.483333 0
1.85 -0.483333 0
1.85 -0.5 0
1.86667 -0.5 0
1.85 -0.483333 0
1.86667 -0.483333 0
1.86667 -0.5 0
1.88333 -0.5 0
1.86667 -0.483333 0
1.88333 -0.483333 0
1.88333 -0.5 0
1.9 -0.5 0
1.88333 -0.483333 0
1.9 -0.483333 0
1.9 -0.5 0
1.91667 -0.5 0
1.9 -0.483333 0
1.91667 -0.483333 0
1.91667 -0.5 0
1.93333 -0.5 0
1.91667 -0.483333 0
1.93333 -0.483333 0
1.93333 -0.5 0
1.95 -0.5 0
1.93333 -0.483333 0
1.95 -0.483333 0
1.95 -0.5 0
1.96667 -0.5 0
1.95 -0.483333 0
1.96667 -0.483333 0
1.96667 -0.5 0
1.98333 -0.5 0
1.96667 -0.483333 0
1.98333 -0.483333 0
1.98333 -0.5 0
2 -0.5 0
1.98333 -0.483333 0
2 -0.483333 0
2 -0.5 0
2.01667 -0.5 0
2 -0.483333 0
2.01667 -0.483333 0
2.01667 -0.5 0
2.03333 -0.5 0
2.01667 -0.483333 0
2.03333 -0.483333 0
2.03333 -0.5 0
2.05 -0.5 0
2.03333 -0.483333 0
2.05 -0.483333 0
2.05 -0.5 0
2.06667 -0.5 0
2.05 -0.483333 0
2.06667 -0.483333 0
2.06667 -0.5 0
2.08333 -0.5 0
2.06667 -0.483333 0
2.08333 -0.483333 0
2.08333 -0.5 0
2.1 -0.5 0
2.08333 -0.483333 0
2.1 -0.483333 0
2.1 -0.5 0
2.11667 -0.5 0
2.1 -0.483333 0
2.11667 -0.483333 0
2.11667 -0.5 0
2.13333 -0.5 0
2.11667 -0.483333 0
2.13333 -0.483333 0
2.13333 -0.5 0
2.15 -0.5 0
2.13333 -0.483333 0
2.15 -0.483333 0
2.15 -0.5 0
2.16667 -0.5 0
2.15 -0.483333 0
2.16667 -0.483333 0
2.16667 -0.5 0
2.18333 -0.5 0
2.16667 -0.483333 0
2.18333 -0.483333 0
2.18333 -0.5 0
2.2 -0.5 0
2.18333 -0.483333 0
2.2 -0.483333 0
2.2 -0.5 0
2.21667 -0.5 0
2.2 -0.483333 0
2.21667 -0.483333 0
2.21667 -0.5 0
2.23333 -0.5 0
2.21667 -0.483333 0
2.23333 -0.483333 0
2.23333 -0.5 0
2.25 -0.5 0
2.23333 -0.483333 0
2.25 -0.483333 0
2.25 -0.5 0
2.26667 -0.5 0
2.25 -0.483333 0
2.26667 -0.483333 0
2.26667 -0.5 0
2.28333 -0.5 0
2.26667 -0.483333 0
2.28333 -0.483333 0
2.28333 -0.5 0
2.3 -0.5 0
2.28333 -0.483333 0
2.3 -0.483333 0
2.3 -0.5 0
2.31667 -0.5 0
2.3 -0.483333 0
2.31667 -0.483333 0
2.31667 -0.5 0
2.33333 -0.5 0
2.31667 -0.483333 0
2.33333 -0.483333 0
2.33333 -0.5 0
2.35 -0.5 0
2.33333 -0.483333 0
2.35 -0.483333 0
2.35 -0.5 0
2.36667 -0.5 0
2.35 -0.483333 0
2.36667 -0.483333 0
2.36667 -0.5 0
2.38333 -0.5 0
2.36667 -0.483333 0
2.38333 -0.483333 0
2.38333 -0.5 0
2.4 -0.5 0
2.38333 -0.483333 0
2.4 -0.483333 0
2.4 -0.5 0
2.41667 -0.5 0
2.4 -0.483333 0
2.41667 -0.483333 0
2.41667 -0.5 0
2.43333 -0.5 0
2.41667 -0.483333 0
2.43333 -0.483333 0
2.43333 -0.5 0
2.45 -0.5 0
2.43333 -0.483333 0
2.45 -0.483333 0
2.45 -0.5 0
2.46667 -0.5 0
2.45 -0.483333 0
2.46667 -0.483333 0
2.46667 -0.5 0
[...]
POINT_DATA 43200
SCALARS x1_displacement double 1
LOOKUP_TABLE default
0 -0.00396751 0 -0.00184095 -0.00396751 -0.00666062 -0.00184095 -0.00442845 -0.00666062 -0.00881235 -0.00442845 -0.0067698 -0.00881235 -0.0107388 -0.0067698 -0.00888931 -0.0107388 -0.0124778 -0.00888931 -0.010835 -0.0124778 -0.0139603 -0.010835 -0.0125983 -0.0139603 -0.0143249 -0.0125983 -0.0139122 -0.0143249 -0.0140972 -0.0139122 -0.0140714 -0.0140972 -0.0138053 -0.0140714 -0.0138582 -0.0138053 -0.0134322 -0.0138582 -0.0135316 -0.0134322 -0.0129668 -0.0135316 -0.0131134 -0.0129668 -0.0124196 -0.0131134 -0.0126159 -0.0124196 -0.0118002 -0.0126159 -0.0120516 -0.0118002 -0.0111189 -0.0120516 -0.0114302 -0.0111189 -0.0103853 -0.0114302 -0.0107608 -0.0103853 -0.00960853 -0.0107608 -0.0100517 -0.00960853 -0.00879698 -0.0100517 -0.00931058 -0.00879698 -0.00795852 -0.00931058 -0.00854447 -0.00795852 -0.00710043 -0.00854447 -0.00775987 -0.00710043 -0.00622937 -0.00775987 -0.00696271 -0.00622937 -0.00535142 -0.00696271 -0.00615841 -0.00535142 -0.00447201 -0.00615841 -0.00535183 -0.00447201 -0.00359595 -0.00535183 -0.00454731 -0.00359595 -0.00272744 -0.00454731 -0.00374865 -0.00272744 -0.00187007 -0.00374865 -0.00295916 -0.00187007 -0.00102687 -0.00295916 -0.00218167 -0.00102687 -0.000200405 -0.00218167 -0.0014186 -0.000200405 0.00060722 -0.0014186 -0.000671976 0.00060722 0.00139424 -0.000671976 5.64796e-05 0.00139424 0.00215919 5.64796e-05 0.00076531 0.00215919 0.0029008 0.00076531 0.00145327 0.0029008 0.00361798 0.00145327 0.00211928 0.00361798 0.00430975 0.00211928 0.00276237 0.00430975 0.0049752 0.00276237 0.00338171 0.0049752 0.00561349 0.00338171 0.0039765 0.00561349 0.00622381 0.0039765 0.00454605 0.00622381 0.00680537 0.00454605 0.0050897 0.00680537 0.00735746 0.0050897 0.00560686 0.00735746 0.00787935 0.00560686 0.00609702 0.00787935 0.00837043 0.00609702 0.00655975 0.00837043 0.00883011 0.00655975 0.00699472 0.00883011 0.00925795 0.00699472 0.00740172 0.00925795 0.00965367 0.00740172 0.00778073 0.00965367 0.0100172 0.00778073 0.00813196 0.0100172 0.0103489 0.00813196 0.00845596 0.0103489 0.0106497 0.00845596 0.00875367 0.0106497 0.0109211 0.00875367 0.00902664 0.0109211 0.0111658 0.00902664 0.0092772 0.0111658 0.0113879 0.0092772 0.00950862 0.0113879 0.0115935 0.00950862 0.00972539 0.0115935 0.0117902 0.00972539 0.00993332 0.0117902 0.0119881 0.00993332 0.0101395 0.0119881 0.0121982 0.0101395 0.010352 0.0121982 0.0124319 0.010352 0.0105791 0.0124319 0.0126988 0.0105791 0.0108282 0.0126988 0.0130056 0.0108282 0.0111044 0.0130056 0.0133542 0.0111044 0.0114099 0.0133542 0.0137423 0.0114099 0.0117438 0.0137423 0.0141639 0.0117438 0.0121027 0.0141639 0.0146111 0.0121027 0.0124816 0.0146111 0.0150759 0.0124816 0.0128756 0.0150759 0.0155511 0.0128756 0.0132801 0.0155511 0.0160313 0.0132801 0.0136916 0.0160313 0.016513 0.0136916 0.0141074 0.016513 0.0169938 0.0141074 0.0145258 0.0169938 0.0174727 0.0145258 0.0149457 0.0174727 0.017949 0.0149457 0.0153664 0.017949 0.0184228 0.0153664 0.0157874 0.0184228 0.0188942 0.0157874 0.0162085 0.0188942 0.0193632 0.0162085 0.0166296 0.0193632 0.0198302 0.0166296 0.0170504 0.0198302 0.0202951 0.0170504 0.0174708 0.0202951 0.0207582 0.0174708 0.0178907 0.0207582 0.0212194 0.0178907 0.0183098 0.0212194 0.0216787 0.0183098 0.0187281 0.0216787 0.022136 0.0187281 0.0191452 0.022136 0.0225913 0.0191452 0.019561 0.0225913 0.0230443 0.019561 0.0199752 0.0230443 0.0234951 0.0199752 0.0203876 0.0234951 0.0239433 0.0203876 0.0207979 0.0239433 0.0243887 0.0207979 0.0212057 0.0243887 0.024831 0.0212057 0.0216108 0.024831 0.02527 0.0216108 0.0220129 0.02527 0.0257053 0.0220129 0.0224114 0.0257053 0.0261364 0.0224114 0.0228061 0.0261364 0.0265629 0.0228061 0.0231965 0.0265629 0.0269844 0.0231965 0.0235822 0.0269844 0.0274004 0.0235822 0.0239625 0.0274004 0.0278103 0.0239625 0.0243372 0.0278103 0.0282135 0.0243372 0.0247056 0.0282135 0.0286095 0.0247056 0.0250672 0.0286095 0.0289978 0.0250672 0.0254216 0.0289978 0.0293776 0.0254216 0.0257681 0.0293776 0.0297485 0.0257681 0.0261064 0.0297485 0.0301099 0.0261064 0.0264358 0.0301099 0.0304613 0.0264358 0.0267561 0.0304613 0.0308023 0.0267561 0.0270668 0.0308023 0.0311325 0.0270668 0.0273676 0.0311325 0.0314515 0.0273676 0.0276583 0.0314515 0.0317593 0.0276583 0.0279386 0.0317593 0.0320556 0.0279386 0.0282085 0.0320556 0.0323405 0.0282085 0.0284681 0.0323405 0.032614 0.0284681 0.0287173 0.032614 0.0328765 0.0287173 0.0289564 0.0328765 0.0331281 0.0289564 0.0291856 0.0331281 0.0333693 0.0291856 0.0294054 0.0333693 0.0336006 0.0294054 0.0296162 0.0336006 0.0338226 0.0296162 0.0298186 0.0338226 0.0340361 0.0298186 0.0300131 0.0340361 0.0342418 0.0300131 0.0302005 0.0342418 0.0344405 0.0302005 0.0303814 0.0344405 0.0346332 0.0303814 0.0305569 0.0346332 0.0348209 0.0305569 0.0307276 0.0348209 0.0350046 0.0307276 0.0308946 0.0350046 0.0351854 0.0308946 0.0310587 0.0351854 0.0353645 0.0310587 0.0312211 0.0353645 0.0355429 0.0312211 0.0313827 0.0355429 0.0357219 0.0313827 0.0315447 0.0357219 0.0359028 0.0315447 0.031708 0.0359028 0.0360867 0.031708 0.0318739 0.0360867 0.036275 0.0318739 0.0320435 0.036275 0.036469 0.0320435 0.0322179 0.036469 0.03667 0.0322179 0.0323982 0.03667 0.0368793 0.0323982 0.0325857 0.0368793 0.0370983 0.0325857 0.0327814 0.0370983 0.0373282 0.0327814 0.0329866 0.0373282 0.0375704 0.0329866 0.0332024 0.0375704 0.0378261 0.0332024 0.0334297 0.0378261 0.0380965 0.0334297 0.0336696 0.0380965 0.0383828 0.0336696 0.0339232 0.0383828 0.038686 0.0339232 0.0341911 0.038686 0.039007 0.0341911 0.0344743 0.039007 0.0393466 0.0344743 0.0347732 0.0393466 0.0397054 0.0347732 0.0350884 0.0397054 0.0400837 0.0350884 0.03542 0.0400837 0.0404816 0.03542 0.0357681 0.0404816 0.0408989 0.0357681 0.0361325 0.0408989 0.0413352 0.0361325 0.0365127 0.0413352 0.0417896 0.0365127 0.0369079 0.0417896 0.0422608 0.0369079 0.037317 0.0422608 0.0427473 0.037317 0.0377387 0.0427473 0.0432471 0.0377387 0.0381713 0.0432471 0.0437579 0.0381713 0.0386127 0.0437579 0.0442772 0.0386127 0.0390608 0.0442772 0.044802 0.0390608 0.0395131 0.044802 0.0453292 0.0395131 0.039967 0.0453292 0.0458555 0.039967 0.0404198 0.0458555 0.0463778 0.0404198 0.0408687 0.0463778 0.0468928 0.0408687 0.0413108 0.0468928 0.0473971 0.0413108 0.0417436 0.0473971 0.0478879 0.0417436 0.0421644 0.0478879 0.0483622 0.0421644 0.0425708 0.0483622 0.0488174 0.0425708 0.0429606 0.0488174 0.0492512 0.0429606 0.0433316 0.0492512 0.0496615 0.0433316 0.0436822 0.0496615 0.0500464 0.0436822 0.0440106 0.0500464 0.0504044 0.0440106 0.0443157 0.0504044 0.050734 0.0443157 0.0445962 0.050734 0.0510342 0.0445962 0.0448512 0.0510342 0.0513038 0.0448512 0.0450799 0.0513038 0.0515421 0.0450799 0.0452817 0.0515421 0.0517482 0.0452817 0.0454562 0.0517482 0.0519214 0.0454562 0.0456031 0.0519214 0.0520609 0.0456031 0.0457223 0.0520609 0.0521661 0.0457223 0.0458137 0.0521661 0.0522359 0.0458137 0.0458777 0.0522359 0.0522694 0.0458777 0.0459147 0.0522694 0.0522647 0.0459147 0.0459257 0.0522647 0.0522194 0.0459257 0.045912 0.0522194 0.0521294 0.045912 0.0458764 0.0521294 0.0519877 0.0458764 0.0458237 0.0519877 0.0517843 0.0458237 0.0457634 0.0517843 0.051509 0.0457634 0.0457137 0.051509 0.0511676 0.0457137 0.0457059 0.0511676 0.0508909 0.0457059 0.0457516 0.0508909 0.0509169 0.0457516 0.0453584 0.0509169 0.0497712 0.0453584 0.0439027 0.0497712 0.0483047 0.0439027 0.0422711 0.0483047 0.0467339 0.0422711 0.0406158 0.0467339 0.0450861 0.0406158 0.0389398 0 -0.00184095 0 -0.00137338 -0.00184095 -0.00442845 -0.00137338 -0.00324966 -0.00442845 -0.0067698 -0.00324966 -0.00537094 -0.0067698 -0.00888931 -0.00537094 -0.007447 -0.00888931 -0.010835 -0.007447 -0.00942524 -0.010835 -0.0125983 -0.00942524 -0.0112929 -0.0125983 -0.0139122 -0.0112929 -0.0129966 -0.0139122 -0.0140714 -0.0129966 -0.0141902 -0.0140714 -0.0138582 -0.0141902 -0.0141745 -0.0138582 -0.0135316 -0.0141745 -0.0138568 -0.0135316 -0.0131134 -0.0138568 -0.0134534 -0.0131134 -0.0126159 -0.0134534 -0.0129794 -0.0126159 -0.0120516 -0.0129794 -0.0124452 -0.0120516 -0.0114302 -0.0124452 -0.0118612 -0.0114302 -0.0107608 -0.0118612 -0.0112353 -0.0107608 -0.0100517 -0.0112353 -0.0105749 -0.0100517 -0.00931058 -0.0105749 -0.0098867 -0.00931058 -0.00854447 -0.0098867 -0.00917678 -0.00854447 -0.00775987 -0.00917678 -0.00845086 -0.00775987 -0.00696271 -0.00845086 -0.00771413 -0.00696271 -0.00615841 -0.00771413 -0.00697135 -0.00615841 -0.00535183 -0.00697135 -0.0062268 -0.00535183 -0.00454731 -0.0062268 -0.00548432 -0.00454731 -0.00374865 -0.00548432 -0.00474726 -0.00374865 -0.00295916 -0.00474726 -0.00401856 -0.00295916 -0.00218167 -0.00401856 -0.00330074 -0.00218167 -0.0014186 -0.00330074 -0.00259595 -0.0014186 -0.000671976 -0.00259595 -0.001906 -0.000671976 5.64796e-05 -0.001906 -0.00123245 5.64796e-05 0.00076531 -0.00123245 -0.000576598 0.00076531 0.00145327 -0.000576598 6.04291e-05 0.00145327 0.00211928 6.04291e-05 0.000677655 0.00211928 0.00276237 0.000677655 0.00127423 0.00276237 0.00338171 0.00127423 0.00184938 0.00338171 0.0039765 0.00184938 0.00240246 0.0039765 0.00454605 0.00240246 0.00293284 0.00454605 0.0050897 0.00293284 0.00344003 0.0050897 0.00560686 0.00344003 0.00392355 0.00560686 0.00609702 0.00392355 0.00438306 0.00609702 0.00655975 0.00438306 0.00481826 0.00655975 0.00699472 0.00481826 0.00522898 0.00699472 0.00740172 0.00522898 0.00561516 0.00740172 0.00778073 0.00561516 0.00597688 0.00778073 0.00813196 0.00597688 0.00631438 0.00813196 0.00845596 0.00631438 0.00662811 0.00845596 0.00875367 0.00662811 0.00691877 0.00875367 0.00902664 0.00691877 0.00718737 0.00902664 0.0092772 0.00718737 0.00743533 0.0092772 0.00950862 0.00743533 0.00766468 0.00950862 0.00972539 0.00766468 0.00787822 0.00972539 0.00993332 0.00787822 0.00807988 0.00993332 0.0101395 0.00807988 0.00827499 0.0101395 0.010352 0.00827499 0.00847031 0.010352 0.0105791 0.00847031 0.00867362 0.0105791 0.0108282 0.00867362 0.0088925 0.0108282 0.0111044 0.0088925 0.00913271 0.0111044 0.0114099 0.00913271 0.00939686 0.0114099 0.0117438 0.00939686 0.00968412 0.0117438 0.0121027 0.00968412 0.00999119 0.0121027 0.0124816 0.00999119 0.0103138 0.0124816 0.0128756 0.0103138 0.010648 0.0128756 0.0132801 0.010648 0.0109908 0.0132801 0.0136916 0.0109908 0.0113402 0.0136916 0.0141074 0.0113402 0.0116948 0.0141074 0.0145258 0.0116948 0.0120538 0.0145258 0.0149457 0.0120538 0.0124166 0.0149457 0.0153664 0.0124166 0.0127827 0.0153664 0.0157874 0.0127827 0.0131517 0.0157874 0.0162085 0.0131517 0.0135231 0.0162085 0.0166296 0.0135231 0.0138966 0.0166296 0.0170504 0.0138966 0.0142716 0.0170504 0.0174708 0.0142716 0.0146479 0.0174708 0.0178907 0.0146479 0.015025 0.0178907 0.0183098 0.015025 0.0154026 0.0183098 0.0187281 0.0154026 0.0157803 0.0187281 0.0191452 0.0157803 0.0161578 0.0191452 0.019561 0.0161578 0.0165347 0.019561 0.0199752 0.0165347 0.0169107 0.0199752 0.0203876 0.0169107 0.0172854 0.0203876 0.0207979 0.0172854 0.0176585 0.0207979 0.0212057 0.0176585 0.0180296 0.0212057 0.0216108 0.0180296 0.0183983 0.0216108 0.0220129 0.0183983 0.0187644 0.0220129 0.0224114 0.0187644 0.0191273 0.0224114 0.0228061 0.0191273 0.0194866 0.0228061 0.0231965 0.0194866 0.019842 0.0231965 0.0235822 0.019842 0.020193 0.0235822 0.0239625 0.020193 0.020539 0.0239625 0.0243372 0.020539 0.0208797 0.0243372 0.0247056 0.0208797 0.0212146 0.0247056 0.0250672 0.0212146 0.0215431 0.0250672 0.0254216 0.0215431 0.0218649 0.0254216 0.0257681 0.0218649 0.0221793 0.0257681 0.0261064 0.0221793 0.0224861 0.0261064 0.0264358 0.0224861 0.0227847 0.0264358 0.0267561 0.0227847 0.0230748 0.0267561 0.0270668 0.0230748 0.023356 0.0270668 0.0273676 0.023356 0.023628 0.0273676 0.0276583 0.023628 0.0238907 0.0276583 0.0279386 0.0238907 0.0241438 0.0279386 0.0282085 0.0241438 0.0243873 0.0282085 0.0284681 0.0243873 0.0246212 0.0284681 0.0287173 0.0246212 0.0248457 0.0287173 0.0289564 0.0248457 0.0250608 0.0289564 0.0291856 0.0250608 0.0252668 0.0291856 0.0294054 0.0252668 0.025464 0.0294054 0.0296162 0.025464 0.025653 0.0296162 0.0298186 0.025653 0.0258341 0.0298186 0.0300131 0.0258341 0.0260079 0.0300131 0.0302005 0.0260079 0.0261751 0.0302005 0.0303814 0.0261751 0.0263362 0.0303814 0.0305569 0.0263362 0.0264922 0.0305569 0.0307276 0.0264922 0.0266436 0.0307276 0.0308946 0.0266436 0.0267914 0.0308946 0.0310587 0.0267914 0.0269365 0.0310587 0.0312211 0.0269365 0.0270796 0.0312211 0.0313827 0.0270796 0.0272218 0.0313827 0.0315447 0.0272218 0.0273639 0.0315447 0.031708 0.0273639 0.027507 0.031708 0.0318739 0.027507 0.027652 0.0318739 0.0320435 0.027652 0.0277999 0.0320435 0.0322179 0.0277999 0.0279518 0.0322179 0.0323982 0.0279518 0.0281086 0.0323982 0.0325857 0.0281086 0.0282714 0.0325857 0.0327814 0.0282714 0.0284411 0.0327814 0.0329866 0.0284411 0.0286188 0.0329866 0.0332024 0.0286188 0.0288054 0.0332024 0.0334297 0.0288054 0.0290019 0.0334297 0.0336696 0.0290019 0.029209 0.0336696 0.0339232 0.029209 0.0294276 0.0339232 0.0341911 0.0294276 0.0296585 0.0341911 0.0344743 0.0296585 0.0299023 0.0344743 0.0347732 0.0299023 0.0301595 0.0347732 0.0350884 0.0301595 0.0304304 0.0350884 0.03542 0.0304304 0.0307154 0.03542 0.0357681 0.0307154 0.0310142 0.0357681 0.0361325 0.0310142 0.0313269 0.0361325 0.0365127 0.0313269 0.031653 0.0365127 0.0369079 0.031653 0.0319917 0.0369079 0.037317 0.0319917 0.0323422 0.037317 0.0377387 0.0323422 0.0327033 0.0377387 0.0381713 0.0327033 0.0330734 0.0381713 0.0386127 0.0330734 0.033451 0.0386127 0.0390608 0.033451 0.033834 0.0390608 0.0395131 0.033834 0.0342203 0.0395131 0.039967 0.0342203 0.0346077 0.039967 0.0404198 0.0346077 0.0349938 0.0404198 0.0408687 0.0349938 0.0353761 0.0408687 0.0413108 0.0353761 0.0357522 0.0413108 0.0417436 0.0357522 0.0361199 0.0417436 0.0421644 0.0361199 0.0364768 0.0421644 0.0425708 0.0364768 0.0368208 0.0425708 0.0429606 0.0368208 0.0371501 0.0429606 0.0433316 0.0371501 0.0374629 0.0433316 0.0436822 0.0374629 0.0377577 0.0436822 0.0440106 0.0377577 0.0380332 0.0440106 0.0443157 0.0380332 0.0382882 0.0443157 0.0445962 0.0382882 0.0385219 0.0445962 0.0448512 0.0385219 0.0387337 0.0448512 0.0450799 0.0387337 0.0389229 0.0450799 0.0452817 0.0389229 0.0390894 0.0452817 0.0454562 0.0390894 0.0392331 0.0454562 0.0456031 0.0392331 0.0393541 0.0456031 0.0457223 0.0393541 0.0394528 0.0457223 0.0458137 0.0394528 0.0395301 0.0458137 0.0458777 0.0395301 0.0395873 0.0458777 0.0459147 0.0395873 0.0396261 0.0459147 0.0459257 0.0396261 0.0396496 0.0459257 0.045912 0.0396496 0.0396624 0.045912 0.0458764 0.0396624 0.0396712 0.0458764 0.0458237 0.0396712 0.0396858 0.0458237 0.0457634 0.0396858 0.0397187 0.0457634 0.0457137 0.0397187 0.0397787 0.0457137 0.0457059 0.0397787 0.0398431 0.0457059 0.0457516 0.0398431 0.0397642 0.0457516 0.0453584 0.0397642 0.0392624 0.0453584 0.0439027 0.0392624 0.0378132 0.0439027 0.0422711 0.0378132 0.0361861 0.0422711 0.0406158 0.0361861 0.0345099 0.0406158 0.0389398 0.0345099 0.0328 0 -0.00137338 0 -0.00109022 -0.00137338 -0.00324966 -0.00109022 -0.00264299 -0.00324966 -0.00537094 -0.00264299 -0.00443913 -0.00537094 -0.007447 -0.00443913 -0.00632098 -0.007447 -0.00942524 -0.00632098 -0.00819422 -0.00942524 -0.0112929 -0.00819422 -0.0100259 -0.0112929 -0.0129966 -0.0100259 -0.0118057 -0.0129966 -0.0141902 -0.0118057 -0.0134566 -0.0141902 -0.0141745 -0.0134566 -0.0145672 -0.0141745 -0.0138568 -0.0145672 -0.0144013 -0.0138568 -0.0134534 -0.0144013 -0.0139733 -0.0134534 -0.0129794 -0.0139733 -0.0134931 -0.0129794 -0.0124452 -0.0134931 -0.0129664 -0.0124452 -0.0118612 -0.0129664 -0.012399 -0.0118612 -0.0112353 -0.012399 -0.0117983 -0.0112353 -0.0105749 -0.0117983 -0.0111697 -0.0105749 -0.0098867 -0.0111697 -0.010519 -0.0098867 -0.00917678 -0.010519 -0.00985115 -0.00917678 -0.00845086 -0.00985115 -0.00917096 -0.00845086 -0.00771413 -0.00917096 -0.00848286 -0.00771413 -0.00697135 -0.00848286 -0.00779092 -0.00697135 -0.0062268 -0.00779092 -0.00709883 -0.0062268 -0.00548432 -0.00709883 -0.00640989 -0.00548432 -0.00474726 -0.00640989 -0.00572697 -0.00474726 -0.00401856 -0.00572697 -0.00505259 -0.00401856 -0.00330074 -0.00505259 -0.00438885 -0.00330074 -0.00259595 -0.00438885 -0.00373756 -0.00259595 -0.001906 -0.00373756 -0.00310021 -0.001906 -0.00123245 -0.00310021 -0.00247806 -0.00123245 -0.000576598 -0.00247806 -0.00187218 -0.000576598 6.04291e-05 -0.00187218 -0.0012835 6.04291e-05 0.000677655 -0.0012835 -0.000712798 0.000677655 0.00127423 -0.000712798 -0.000160784 0.00127423 0.00184938 -0.000160784 0.000371925 0.00184938 0.00240246 0.000371925 0.000884784 0.00240246 0.00293284 0.000884784 0.00137732 0.00293284 0.00344003 0.00137732 0.00184913 0.00344003 0.00392355 0.00184913 0.00229989 0.00392355 0.00438306 0.00229989 0.00272934 0.00438306 0.00481826 0.00272934 0.00313733 0.00481826 0.00522898 0.00313733 0.00352377 0.00522898 0.00561516 0.00352377 0.00388866 0.00561516 0.00597688 0.00388866 0.00423209 0.00597688 0.00631438 0.00423209 0.0045542 0.00631438 0.00662811 0.0045542 0.00485519 0.00662811 0.00691877 0.00485519 0.00513529 0.00691877 0.00718737 0.00513529 0.0053948 0.00718737 0.00743533 0.0053948 0.00563403 0.00743533 0.00766468 0.00563403 0.00585352 0.00766468 0.00787822 0.00585352 0.00605425 0.00787822 0.00807988 0.00605425 0.00623823 0.00807988 0.00827499 0.00623823 0.00640926 0.00827499 0.00847031 0.00640926 0.00657361 0.00847031 0.00867362 0.00657361 0.00674007 0.00867362 0.0088925 0.00674007 0.0069184 0.0088925 0.00913271 0.0069184 0.00711658 0.00913271 0.00939686 0.00711658 0.0073381 0.00939686 0.00968412 0.0073381 0.0075814 0.00968412 0.00999119 0.0075814 0.0078417 0.00999119 0.0103138 0.0078417 0.00811376 0.0103138 0.010648 0.00811376 0.00839376 0.010648 0.0109908 0.00839376 0.00867971 0.0109908 0.0113402 0.00867971 0.00897101 0.0113402 0.0116948 0.00897101 0.00926772 0.0116948 0.0120538 0.00926772 0.00957003 0.0120538 0.0124166 0.00957003 0.00987795 0.0124166 0.0127827 0.00987795 0.0101913 0.0127827 0.0131517 0.0101913 0.0105097 0.0131517 0.0135231 0.0105097 0.0108327 0.0135231 0.0138966 0.0108327 0.0111596 0.0138966 0.0142716 0.0111596 0.0114899 0.0142716 0.0146479 0.0114899 0.011823 0.0146479 0.015025 0.011823 0.0121583 0.015025 0.0154026 0.0121583 0.0124952 0.0154026 0.0157803 0.0124952 0.0128332 0.0157803 0.0161578 0.0128332 0.0131719 0.0161578 0.0165347 0.0131719 0.0135108 0.0165347 0.0169107 0.0135108 0.0138494 0.0169107 0.0172854 0.0138494 0.0141873 0.0172854 0.0176585 0.0141873 0.0145241 0.0176585 0.0180296 0.0145241 0.0148594 0.0180296 0.0183983 0.0148594 0.0151928 0.0183983 0.0187644 0.0151928 0.0155238 0.0187644 0.0191273 0.0155238 0.0158521 0.0191273 0.0194866 0.0158521 0.0161772 0.0194866 0.019842 0.0161772 0.0164987 0.019842 0.020193 0.0164987 0.0168161 0.020193 0.020539 0.0168161 0.0171289 0.020539 0.0208797 0.0171289 0.0174369 0.0208797 0.0212146 0.0174369 0.0177394 0.0212146 0.0215431 0.0177394 0.018036 0.0215431 0.0218649 0.018036 0.0183262 0.0218649 0.0221793 0.0183262 0.0186097 0.0221793 0.0224861 0.0186097 0.018886 0.0224861 0.0227847 0.018886 0.0191546 0.0227847 0.0230748 0.0191546 0.0194153 0.0230748 0.023356 0.0194153 0.0196676 0.023356 0.023628 0.0196676 0.0199114 0.023628 0.0238907 0.0199114 0.0201465 0.0238907 0.0241438 0.0201465 0.0203726 0.0241438 0.0243873 0.0203726 0.0205897 0.0243873 0.0246212 0.0205897 0.0207978 0.0246212 0.0248457 0.0207978 0.020997 0.0248457 0.0250608 0.020997 0.0211874 0.0250608 0.0252668 0.0211874 0.0213693 0.0252668 0.025464 0.0213693 0.021543 0.025464 0.025653 0.021543 0.0217089 0.025653 0.0258341 0.0217089 0.0218674 0.0258341 0.0260079 0.0218674 0.022019 0.0260079 0.0261751 0.022019 0.0221643 0.0261751 0.0263362 0.0221643 0.0223039 0.0263362 0.0264922 0.0223039 0.0224384 0.0264922 0.0266436 0.0224384 0.0225686 0.0266436 0.0267914 0.0225686 0.0226951 0.0267914 0.0269365 0.0226951 0.0228188 0.0269365 0.0270796 0.0228188 0.0229404 0.0270796 0.0272218 0.0229404 0.0230608 0.0272218 0.0273639 0.0230608 0.0231807 0.0273639 0.027507 0.0231807 0.0233011 0.027507 0.027652 0.0233011 0.0234227 0.027652 0.0277999 0.0234227 0.0235465 0.0277999 0.0279518 0.0235465 0.0236734 0.