# vtk DataFile Version 3.0
#This file was generated by the deal.II library on 2021/2/10 at 1:50:29
ASCII
DATASET UNSTRUCTURED_GRID

POINTS 43200 double
0 -0.5 0
0.0166667 -0.5 0
0 -0.483333 0
0.0166667 -0.483333 0
0.0166667 -0.5 0
0.0333333 -0.5 0
0.0166667 -0.483333 0
0.0333333 -0.483333 0
0.0333333 -0.5 0
0.05 -0.5 0
0.0333333 -0.483333 0
0.05 -0.483333 0
0.05 -0.5 0
0.0666667 -0.5 0
0.05 -0.483333 0
0.0666667 -0.483333 0
0.0666667 -0.5 0
0.0833333 -0.5 0
0.0666667 -0.483333 0
0.0833333 -0.483333 0
0.0833333 -0.5 0
0.1 -0.5 0
0.0833333 -0.483333 0
0.1 -0.483333 0
0.1 -0.5 0
0.116667 -0.5 0
0.1 -0.483333 0
0.116667 -0.483333 0
0.116667 -0.5 0
0.133333 -0.5 0
0.116667 -0.483333 0
0.133333 -0.483333 0
0.133333 -0.5 0
0.15 -0.5 0
0.133333 -0.483333 0
0.15 -0.483333 0
0.15 -0.5 0
0.166667 -0.5 0
0.15 -0.483333 0
0.166667 -0.483333 0
0.166667 -0.5 0
0.183333 -0.5 0
0.166667 -0.483333 0
0.183333 -0.483333 0
0.183333 -0.5 0
0.2 -0.5 0
0.183333 -0.483333 0
0.2 -0.483333 0
0.2 -0.5 0
0.216667 -0.5 0
0.2 -0.483333 0
0.216667 -0.483333 0
0.216667 -0.5 0
0.233333 -0.5 0
0.216667 -0.483333 0
0.233333 -0.483333 0
0.233333 -0.5 0
0.25 -0.5 0
0.233333 -0.483333 0
0.25 -0.483333 0
0.25 -0.5 0
0.266667 -0.5 0
0.25 -0.483333 0
0.266667 -0.483333 0
0.266667 -0.5 0
0.283333 -0.5 0
0.266667 -0.483333 0
0.283333 -0.483333 0
0.283333 -0.5 0
0.3 -0.5 0
0.283333 -0.483333 0
0.3 -0.483333 0
0.3 -0.5 0
0.316667 -0.5 0
0.3 -0.483333 0
0.316667 -0.483333 0
0.316667 -0.5 0
0.333333 -0.5 0
0.316667 -0.483333 0
0.333333 -0.483333 0
0.333333 -0.5 0
0.35 -0.5 0
0.333333 -0.483333 0
0.35 -0.483333 0
0.35 -0.5 0
0.366667 -0.5 0
0.35 -0.483333 0
0.366667 -0.483333 0
0.366667 -0.5 0
0.383333 -0.5 0
0.366667 -0.483333 0
0.383333 -0.483333 0
0.383333 -0.5 0
0.4 -0.5 0
0.383333 -0.483333 0
0.4 -0.483333 0
0.4 -0.5 0
0.416667 -0.5 0
0.4 -0.483333 0
0.416667 -0.483333 0
0.416667 -0.5 0
0.433333 -0.5 0
0.416667 -0.483333 0
0.433333 -0.483333 0
0.433333 -0.5 0
0.45 -0.5 0
0.433333 -0.483333 0
0.45 -0.483333 0
0.45 -0.5 0
0.466667 -0.5 0
0.45 -0.483333 0
0.466667 -0.483333 0
0.466667 -0.5 0
0.483333 -0.5 0
0.466667 -0.483333 0
0.483333 -0.483333 0
0.483333 -0.5 0
0.5 -0.5 0
0.483333 -0.483333 0
0.5 -0.483333 0
0.5 -0.5 0
0.516667 -0.5 0
0.5 -0.483333 0
0.516667 -0.483333 0
0.516667 -0.5 0
0.533333 -0.5 0
0.516667 -0.483333 0
0.533333 -0.483333 0
0.533333 -0.5 0
0.55 -0.5 0
0.533333 -0.483333 0
0.55 -0.483333 0
0.55 -0.5 0
0.566667 -0.5 0
0.55 -0.483333 0
0.566667 -0.483333 0
0.566667 -0.5 0
0.583333 -0.5 0
0.566667 -0.483333 0
0.583333 -0.483333 0
0.583333 -0.5 0
0.6 -0.5 0
0.583333 -0.483333 0
0.6 -0.483333 0
0.6 -0.5 0
0.616667 -0.5 0
0.6 -0.483333 0
0.616667 -0.483333 0
0.616667 -0.5 0
0.633333 -0.5 0
0.616667 -0.483333 0
0.633333 -0.483333 0
0.633333 -0.5 0
0.65 -0.5 0
0.633333 -0.483333 0
0.65 -0.483333 0
0.65 -0.5 0
0.666667 -0.5 0
0.65 -0.483333 0
0.666667 -0.483333 0
0.666667 -0.5 0
0.683333 -0.5 0
0.666667 -0.483333 0
0.683333 -0.483333 0
0.683333 -0.5 0
0.7 -0.5 0
0.683333 -0.483333 0
0.7 -0.483333 0
0.7 -0.5 0
0.716667 -0.5 0
0.7 -0.483333 0
0.716667 -0.483333 0
0.716667 -0.5 0
0.733333 -0.5 0
0.716667 -0.483333 0
0.733333 -0.483333 0
0.733333 -0.5 0
0.75 -0.5 0
0.733333 -0.483333 0
0.75 -0.483333 0
0.75 -0.5 0
0.766667 -0.5 0
0.75 -0.483333 0
0.766667 -0.483333 0
0.766667 -0.5 0
0.783333 -0.5 0
0.766667 -0.483333 0
0.783333 -0.483333 0
0.783333 -0.5 0
0.8 -0.5 0
0.783333 -0.483333 0
0.8 -0.483333 0
0.8 -0.5 0
0.816667 -0.5 0
0.8 -0.483333 0
0.816667 -0.483333 0
0.816667 -0.5 0
0.833333 -0.5 0
0.816667 -0.483333 0
0.833333 -0.483333 0
0.833333 -0.5 0
0.85 -0.5 0
0.833333 -0.483333 0
0.85 -0.483333 0
0.85 -0.5 0
0.866667 -0.5 0
0.85 -0.483333 0
0.866667 -0.483333 0
0.866667 -0.5 0
0.883333 -0.5 0
0.866667 -0.483333 0
0.883333 -0.483333 0
0.883333 -0.5 0
0.9 -0.5 0
0.883333 -0.483333 0
0.9 -0.483333 0
0.9 -0.5 0
0.916667 -0.5 0
0.9 -0.483333 0
0.916667 -0.483333 0
0.916667 -0.5 0
0.933333 -0.5 0
0.916667 -0.483333 0
0.933333 -0.483333 0
0.933333 -0.5 0
0.95 -0.5 0
0.933333 -0.483333 0
0.95 -0.483333 0
0.95 -0.5 0
0.966667 -0.5 0
0.95 -0.483333 0
0.966667 -0.483333 0
0.966667 -0.5 0
0.983333 -0.5 0
0.966667 -0.483333 0
0.983333 -0.483333 0
0.983333 -0.5 0
1 -0.5 0
0.983333 -0.483333 0
1 -0.483333 0
1 -0.5 0
1.01667 -0.5 0
1 -0.483333 0
1.01667 -0.483333 0
1.01667 -0.5 0
1.03333 -0.5 0
1.01667 -0.483333 0
1.03333 -0.483333 0
1.03333 -0.5 0
1.05 -0.5 0
1.03333 -0.483333 0
1.05 -0.483333 0
1.05 -0.5 0
1.06667 -0.5 0
1.05 -0.483333 0
1.06667 -0.483333 0
1.06667 -0.5 0
1.08333 -0.5 0
1.06667 -0.483333 0
1.08333 -0.483333 0
1.08333 -0.5 0
1.1 -0.5 0
1.08333 -0.483333 0
1.1 -0.483333 0
1.1 -0.5 0
1.11667 -0.5 0
1.1 -0.483333 0
1.11667 -0.483333 0
1.11667 -0.5 0
1.13333 -0.5 0
1.11667 -0.483333 0
1.13333 -0.483333 0
1.13333 -0.5 0
1.15 -0.5 0
1.13333 -0.483333 0
1.15 -0.483333 0
1.15 -0.5 0
1.16667 -0.5 0
1.15 -0.483333 0
1.16667 -0.483333 0
1.16667 -0.5 0
1.18333 -0.5 0
1.16667 -0.483333 0
1.18333 -0.483333 0
1.18333 -0.5 0
1.2 -0.5 0
1.18333 -0.483333 0
1.2 -0.483333 0
1.2 -0.5 0
1.21667 -0.5 0
1.2 -0.483333 0
1.21667 -0.483333 0
1.21667 -0.5 0
1.23333 -0.5 0
1.21667 -0.483333 0
1.23333 -0.483333 0
1.23333 -0.5 0
1.25 -0.5 0
1.23333 -0.483333 0
1.25 -0.483333 0
1.25 -0.5 0
1.26667 -0.5 0
1.25 -0.483333 0
1.26667 -0.483333 0
1.26667 -0.5 0
1.28333 -0.5 0
1.26667 -0.483333 0
1.28333 -0.483333 0
1.28333 -0.5 0
1.3 -0.5 0
1.28333 -0.483333 0
1.3 -0.483333 0
1.3 -0.5 0
1.31667 -0.5 0
1.3 -0.483333 0
1.31667 -0.483333 0
1.31667 -0.5 0
1.33333 -0.5 0
1.31667 -0.483333 0
1.33333 -0.483333 0
1.33333 -0.5 0
1.35 -0.5 0
1.33333 -0.483333 0
1.35 -0.483333 0
1.35 -0.5 0
1.36667 -0.5 0
1.35 -0.483333 0
1.36667 -0.483333 0
1.36667 -0.5 0
1.38333 -0.5 0
1.36667 -0.483333 0
1.38333 -0.483333 0
1.38333 -0.5 0
1.4 -0.5 0
1.38333 -0.483333 0
1.4 -0.483333 0
1.4 -0.5 0
1.41667 -0.5 0
1.4 -0.483333 0
1.41667 -0.483333 0
1.41667 -0.5 0
1.43333 -0.5 0
1.41667 -0.483333 0
1.43333 -0.483333 0
1.43333 -0.5 0
1.45 -0.5 0
1.43333 -0.483333 0
1.45 -0.483333 0
1.45 -0.5 0
1.46667 -0.5 0
1.45 -0.483333 0
1.46667 -0.483333 0
1.46667 -0.5 0
1.48333 -0.5 0
1.46667 -0.483333 0
1.48333 -0.483333 0
1.48333 -0.5 0
1.5 -0.5 0
1.48333 -0.483333 0
1.5 -0.483333 0
1.5 -0.5 0
1.51667 -0.5 0
1.5 -0.483333 0
1.51667 -0.483333 0
1.51667 -0.5 0
1.53333 -0.5 0
1.51667 -0.483333 0
1.53333 -0.483333 0
1.53333 -0.5 0
1.55 -0.5 0
1.53333 -0.483333 0
1.55 -0.483333 0
1.55 -0.5 0
1.56667 -0.5 0
1.55 -0.483333 0
1.56667 -0.483333 0
1.56667 -0.5 0
1.58333 -0.5 0
1.56667 -0.483333 0
1.58333 -0.483333 0
1.58333 -0.5 0
1.6 -0.5 0
1.58333 -0.483333 0
1.6 -0.483333 0
1.6 -0.5 0
1.61667 -0.5 0
1.6 -0.483333 0
1.61667 -0.483333 0
1.61667 -0.5 0
1.63333 -0.5 0
1.61667 -0.483333 0
1.63333 -0.483333 0
1.63333 -0.5 0
1.65 -0.5 0
1.63333 -0.483333 0
1.65 -0.483333 0
1.65 -0.5 0
1.66667 -0.5 0
1.65 -0.483333 0
1.66667 -0.483333 0
1.66667 -0.5 0
1.68333 -0.5 0
1.66667 -0.483333 0
1.68333 -0.483333 0
1.68333 -0.5 0
1.7 -0.5 0
1.68333 -0.483333 0
1.7 -0.483333 0
1.7 -0.5 0
1.71667 -0.5 0
1.7 -0.483333 0
1.71667 -0.483333 0
1.71667 -0.5 0
1.73333 -0.5 0
1.71667 -0.483333 0
1.73333 -0.483333 0
1.73333 -0.5 0
1.75 -0.5 0
1.73333 -0.483333 0
1.75 -0.483333 0
1.75 -0.5 0
1.76667 -0.5 0
1.75 -0.483333 0
1.76667 -0.483333 0
1.76667 -0.5 0
1.78333 -0.5 0
1.76667 -0.483333 0
1.78333 -0.483333 0
1.78333 -0.5 0
1.8 -0.5 0
1.78333 -0.483333 0
1.8 -0.483333 0
1.8 -0.5 0
1.81667 -0.5 0
1.8 -0.483333 0
1.81667 -0.483333 0
1.81667 -0.5 0
1.83333 -0.5 0
1.81667 -0.483333 0
1.83333 -0.483333 0
1.83333 -0.5 0
1.85 -0.5 0
1.83333 -0.483333 0
1.85 -0.483333 0
1.85 -0.5 0
1.86667 -0.5 0
1.85 -0.483333 0
1.86667 -0.483333 0
1.86667 -0.5 0
1.88333 -0.5 0
1.86667 -0.483333 0
1.88333 -0.483333 0
1.88333 -0.5 0
1.9 -0.5 0
1.88333 -0.483333 0
1.9 -0.483333 0
1.9 -0.5 0
1.91667 -0.5 0
1.9 -0.483333 0
1.91667 -0.483333 0
1.91667 -0.5 0
1.93333 -0.5 0
1.91667 -0.483333 0
1.93333 -0.483333 0
1.93333 -0.5 0
1.95 -0.5 0
1.93333 -0.483333 0
1.95 -0.483333 0
1.95 -0.5 0
1.96667 -0.5 0
1.95 -0.483333 0
1.96667 -0.483333 0
1.96667 -0.5 0
1.98333 -0.5 0
1.96667 -0.483333 0
1.98333 -0.483333 0
1.98333 -0.5 0
2 -0.5 0
1.98333 -0.483333 0
2 -0.483333 0
2 -0.5 0
2.01667 -0.5 0
2 -0.483333 0
2.01667 -0.483333 0
2.01667 -0.5 0
2.03333 -0.5 0
2.01667 -0.483333 0
2.03333 -0.483333 0
2.03333 -0.5 0
2.05 -0.5 0
2.03333 -0.483333 0
2.05 -0.483333 0
2.05 -0.5 0
2.06667 -0.5 0
2.05 -0.483333 0
2.06667 -0.483333 0
2.06667 -0.5 0
2.08333 -0.5 0
2.06667 -0.483333 0
2.08333 -0.483333 0
2.08333 -0.5 0
2.1 -0.5 0
2.08333 -0.483333 0
2.1 -0.483333 0
2.1 -0.5 0
2.11667 -0.5 0
2.1 -0.483333 0
2.11667 -0.483333 0
2.11667 -0.5 0
2.13333 -0.5 0
2.11667 -0.483333 0
2.13333 -0.483333 0
2.13333 -0.5 0
2.15 -0.5 0
2.13333 -0.483333 0
2.15 -0.483333 0
2.15 -0.5 0
2.16667 -0.5 0
2.15 -0.483333 0
2.16667 -0.483333 0
2.16667 -0.5 0
2.18333 -0.5 0
2.16667 -0.483333 0
2.18333 -0.483333 0
2.18333 -0.5 0
2.2 -0.5 0
2.18333 -0.483333 0
2.2 -0.483333 0
2.2 -0.5 0
2.21667 -0.5 0
2.2 -0.483333 0
2.21667 -0.483333 0
2.21667 -0.5 0
2.23333 -0.5 0
2.21667 -0.483333 0
2.23333 -0.483333 0
2.23333 -0.5 0
2.25 -0.5 0
2.23333 -0.483333 0
2.25 -0.483333 0
2.25 -0.5 0
2.26667 -0.5 0
2.25 -0.483333 0
2.26667 -0.483333 0
2.26667 -0.5 0
2.28333 -0.5 0
2.26667 -0.483333 0
2.28333 -0.483333 0
2.28333 -0.5 0
2.3 -0.5 0
2.28333 -0.483333 0
2.3 -0.483333 0
2.3 -0.5 0
2.31667 -0.5 0
2.3 -0.483333 0
2.31667 -0.483333 0
2.31667 -0.5 0
2.33333 -0.5 0
2.31667 -0.483333 0
2.33333 -0.483333 0
2.33333 -0.5 0
2.35 -0.5 0
2.33333 -0.483333 0
2.35 -0.483333 0
2.35 -0.5 0
2.36667 -0.5 0
2.35 -0.483333 0
2.36667 -0.483333 0
2.36667 -0.5 0
2.38333 -0.5 0
2.36667 -0.483333 0
2.38333 -0.483333 0
2.38333 -0.5 0
2.4 -0.5 0
2.38333 -0.483333 0
2.4 -0.483333 0
2.4 -0.5 0
2.41667 -0.5 0
2.4 -0.483333 0
2.41667 -0.483333 0
2.41667 -0.5 0
2.43333 -0.5 0
2.41667 -0.483333 0
2.43333 -0.483333 0
2.43333 -0.5 0
2.45 -0.5 0
2.43333 -0.483333 0
2.45 -0.483333 0
2.45 -0.5 0
2.46667 -0.5 0
2.45 -0.483333 0
2.46667 -0.483333 0
2.46667 -0.5 0
[...]
POINT_DATA 43200
SCALARS x1_displacement double 1
LOOKUP_TABLE default
0 -0.00178167 0 -0.00086315 -0.00178167 -0.00158041 -0.00086315 -0.00126563 -0.00158041 -0.00091054 -0.00126563 -0.00101419 -0.00091054 -0.00032249 -0.00101419 -0.000587269 -0.00032249 0.000279078 -0.000587269 -6.74451e-05 0.000279078 0.000905884 -6.74451e-05 0.000498786 0.000905884 0.00156069 0.000498786 0.00110499 0.00156069 0.00224535 0.00110499 0.00174497 0.00224535 0.00295842 0.00174497 0.00241336 0.00295842 0.0036966 0.00241336 0.00310549 0.0036966 0.00445577 0.00310549 0.00381691 0.00445577 0.00523159 0.00381691 0.00454351 0.00523159 0.00601991 0.00454351 0.00528153 0.00601991 0.00681693 0.00528153 0.00602761 0.00681693 0.00761927 0.00602761 0.00677875 0.00761927 0.008424 0.00677875 0.00753232 0.008424 0.00922855 0.00753232 0.00828601 0.00922855 0.0100307 0.00828601 0.00903783 0.0100307 0.0108286 0.00903783 0.00978604 0.0108286 0.0116207 0.00978604 0.0105292 0.0116207 0.0124055 0.0105292 0.011266 0.0124055 0.0131821 0.011266 0.0119954 0.0131821 0.0139495 0.0119954 0.0127167 0.0139495 0.0147071 0.0127167 0.0134291 0.0147071 0.0154542 0.0134291 0.0141321 0.0154542 0.0161907 0.0141321 0.0148255 0.0161907 0.0169163 0.0148255 0.0155088 0.0169163 0.0176309 0.0155088 0.0161822 0.0176309 0.0183345 0.0161822 0.0168454 0.0183345 0.0190273 0.0168454 0.0174987 0.0190273 0.0197096 0.0174987 0.0181423 0.0197096 0.0203815 0.0181423 0.0187762 0.0203815 0.0210436 0.0187762 0.019401 0.0210436 0.0216961 0.019401 0.0200168 0.0216961 0.0223396 0.0200168 0.0206241 0.0223396 0.0229746 0.0206241 0.0212233 0.0229746 0.0236015 0.0212233 0.0218149 0.0236015 0.0242208 0.0218149 0.0223992 0.0242208 0.0248331 0.0223992 0.0229769 0.0248331 0.025439 0.0229769 0.0235482 0.025439 0.0260389 0.0235482 0.0241138 0.0260389 0.0266333 0.0241138 0.024674 0.0266333 0.0272228 0.024674 0.0252294 0.0272228 0.0278079 0.0252294 0.0257802 0.0278079 0.0283889 0.0257802 0.0263271 0.0283889 0.0289663 0.0263271 0.0268702 0.0289663 0.0295405 0.0268702 0.0274101 0.0295405 0.0301119 0.0274101 0.027947 0.0301119 0.0306809 0.027947 0.0284813 0.0306809 0.0312477 0.0284813 0.0290133 0.0312477 0.0318127 0.0290133 0.0295432 0.0318127 0.0323761 0.0295432 0.0300713 0.0323761 0.0329381 0.0300713 0.0305978 0.0329381 0.0334989 0.0305978 0.0311229 0.0334989 0.0340588 0.0311229 0.0316467 0.0340588 0.0346177 0.0316467 0.0321694 0.0346177 0.0351759 0.0321694 0.032691 0.0351759 0.0357334 0.032691 0.0332117 0.0357334 0.0362903 0.0332117 0.0337316 0.0362903 0.0368466 0.0337316 0.0342505 0.0368466 0.0374023 0.0342505 0.0347686 0.0374023 0.0379574 0.0347686 0.0352859 0.0379574 0.0385118 0.0352859 0.0358023 0.0385118 0.0390655 0.0358023 0.0363177 0.0390655 0.0396184 0.0363177 0.0368322 0.0396184 0.0401704 0.0368322 0.0373455 0.0401704 0.0407214 0.0373455 0.0378577 0.0407214 0.0412712 0.0378577 0.0383687 0.0412712 0.0418198 0.0383687 0.0388782 0.0418198 0.042367 0.0388782 0.0393863 0.042367 0.0429127 0.0393863 0.0398926 0.0429127 0.0434566 0.0398926 0.0403973 0.0434566 0.0439987 0.0403973 0.0409 0.0439987 0.0445388 0.0409 0.0414006 0.0445388 0.0450767 0.0414006 0.0418991 0.0450767 0.0456123 0.0418991 0.0423952 0.0456123 0.0461454 0.0423952 0.0428889 0.0461454 0.0466759 0.0428889 0.04338 0.0466759 0.0472036 0.04338 0.0438685 0.0472036 0.0477285 0.0438685 0.044354 0.0477285 0.0482504 0.044354 0.0448367 0.0482504 0.0487691 0.0448367 0.0453163 0.0487691 0.0492847 0.0453163 0.0457928 0.0492847 0.0497969 0.0457928 0.0462661 0.0497969 0.0503058 0.0462661 0.0467362 0.0503058 0.0508113 0.0467362 0.0472028 0.0508113 0.0513132 0.0472028 0.0476661 0.0513132 0.0518116 0.0476661 0.0481259 0.0518116 0.0523064 0.0481259 0.0485822 0.0523064 0.0527976 0.0485822 0.049035 0.0527976 0.0532851 0.049035 0.0494842 0.0532851 0.053769 0.0494842 0.0499299 0.053769 0.0542491 0.0499299 0.0503719 0.0542491 0.0547255 0.0503719 0.0508103 0.0547255 0.0551982 0.0508103 0.051245 0.0551982 0.0556672 0.051245 0.0516761 0.0556672 0.0561325 0.0516761 0.0521035 0.0561325 0.056594 0.0521035 0.0525272 0.056594 0.0570517 0.0525272 0.0529473 0.0570517 0.0575056 0.0529473 0.0533636 0.0575056 0.0579557 0.0533636 0.0537761 0.0579557 0.0584021 0.0537761 0.054185 0.0584021 0.0588445 0.054185 0.05459 0.0588445 0.0592831 0.05459 0.0549912 0.0592831 0.0597178 0.0549912 0.0553887 0.0597178 0.0601486 0.0553887 0.0557822 0.0601486 0.0605754 0.0557822 0.0561719 0.0605754 0.0609982 0.0561719 0.0565578 0.0609982 0.0614171 0.0565578 0.0569397 0.0614171 0.0618319 0.0569397 0.0573177 0.0618319 0.0622427 0.0573177 0.0576919 0.0622427 0.0626495 0.0576919 0.0580621 0.0626495 0.0630522 0.0580621 0.0584285 0.0630522 0.0634511 0.0584285 0.058791 0.0634511 0.063846 0.058791 0.0591498 0.063846 0.0642371 0.0591498 0.059505 0.0642371 0.0646245 0.059505 0.0598565 0.0646245 0.0650084 0.0598565 0.0602047 0.0650084 0.065389 0.0602047 0.0605496 0.065389 0.0657664 0.0605496 0.0608915 0.0657664 0.066141 0.0608915 0.0612307 0.066141 0.066513 0.0612307 0.0615673 0.066513 0.0668829 0.0615673 0.0619017 0.0668829 0.0672511 0.0619017 0.0622343 0.0672511 0.0676179 0.0622343 0.0625655 0.0676179 0.067984 0.0625655 0.0628957 0.067984 0.0683499 0.0628957 0.0632255 0.0683499 0.0687162 0.0632255 0.0635552 0.0687162 0.0690835 0.0635552 0.0638855 0.0690835 0.0694525 0.0638855 0.064217 0.0694525 0.0698239 0.064217 0.0645501 0.0698239 0.0701984 0.0645501 0.0648855 0.0701984 0.0705768 0.0648855 0.0652238 0.0705768 0.0709596 0.0652238 0.0655654 0.0709596 0.0713477 0.0655654 0.0659111 0.0713477 0.0717416 0.0659111 0.0662612 0.0717416 0.072142 0.0662612 0.0666162 0.072142 0.0725492 0.0666162 0.0669765 0.0725492 0.0729639 0.0669765 0.0673423 0.0729639 0.0733861 0.0673423 0.0677137 0.0733861 0.0738161 0.0677137 0.0680909 0.0738161 0.0742537 0.0680909 0.0684736 0.0742537 0.0746987 0.0684736 0.0688616 0.0746987 0.0751504 0.0688616 0.0692542 0.0751504 0.0756082 0.0692542 0.0696507 0.0756082 0.0760709 0.0696507 0.0700502 0.0760709 0.0765371 0.0700502 0.0704513 0.0765371 0.077005 0.0704513 0.0708526 0.077005 0.0774728 0.0708526 0.0712524 0.0774728 0.0779383 0.0712524 0.0716489 0.0779383 0.078399 0.0716489 0.0720401 0.078399 0.0788525 0.0720401 0.0724239 0.0788525 0.0792964 0.0724239 0.0727983 0.0792964 0.0797283 0.0727983 0.0731613 0.0797283 0.0801461 0.0731613 0.0735112 0.0801461 0.0805479 0.0735112 0.0738463 0.0805479 0.0809323 0.0738463 0.0741654 0.0809323 0.0812982 0.0741654 0.0744676 0.0812982 0.0816449 0.0744676 0.0747524 0.0816449 0.0819726 0.0747524 0.0750195 0.0819726 0.0822814 0.0750195 0.0752692 0.0822814 0.0825721 0.0752692 0.075502 0.0825721 0.082846 0.075502 0.0757187 0.082846 0.0831042 0.0757187 0.0759204 0.0831042 0.0833481 0.0759204 0.076108 0.0833481 0.0835791 0.076108 0.0762827 0.0835791 0.0837978 0.0762827 0.0764453 0.0837978 0.0840047 0.0764453 0.0765964 0.0840047 0.0841994 0.0765964 0.0767359 0.0841994 0.0843806 0.0767359 0.0768637 0.0843806 0.0845465 0.0768637 0.0769789 0.0845465 0.0846951 0.0769789 0.0770805 0.0846951 0.084824 0.0770805 0.0771676 0.084824 0.0849316 0.0771676 0.0772396 0.0849316 0.0850167 0.0772396 0.0772963 0.0850167 0.0850795 0.0772963 0.0773385 0.0850795 0.0851207 0.0773385 0.0773673 0.0851207 0.0851425 0.0773673 0.0773842 0.0851425 0.0851497 0.0773842 0.0773911 0.0851497 0.0851505 0.0773911 0.0773916 0 -0.00086315 0 -0.00108853 -0.00086315 -0.00126563 -0.00108853 -0.00180612 -0.00126563 -0.00101419 -0.00180612 -0.00146421 -0.00101419 -0.000587269 -0.00146421 -0.00100538 -0.000587269 -6.74451e-05 -0.00100538 -0.00053069 -6.74451e-05 0.000498786 -0.00053069 -3.49316e-06 0.000498786 0.00110499 -3.49316e-06 0.000568542 0.00110499 0.00174497 0.000568542 0.00117526 0.00174497 0.00241336 0.00117526 0.00180989 0.00241336 0.00310549 0.00180989 0.00246652 0.00310549 0.00381691 0.00246652 0.0031402 0.00381691 0.00454351 0.0031402 0.00382681 0.00454351 0.00528153 0.00382681 0.00452289 0.00528153 0.00602761 0.00452289 0.00522548 0.00602761 0.00677875 0.00522548 0.00593199 0.00677875 0.00753232 0.00593199 0.00664016 0.00753232 0.00828601 0.00664016 0.00734801 0.00828601 0.00903783 0.00734801 0.0080538 0.00903783 0.00978604 0.0080538 0.00875601 0.00978604 0.0105292 0.00875601 0.00945334 0.0105292 0.011266 0.00945334 0.0101447 0.011266 0.0119954 0.0101447 0.0108291 0.0119954 0.0127167 0.0108291 0.0115059 0.0127167 0.0134291 0.0115059 0.0121744 0.0134291 0.0141321 0.0121744 0.0128342 0.0141321 0.0148255 0.0128342 0.0134849 0.0148255 0.0155088 0.0134849 0.0141264 0.0155088 0.0161822 0.0141264 0.0147585 0.0161822 0.0168454 0.0147585 0.0153812 0.0168454 0.0174987 0.0153812 0.0159945 0.0174987 0.0181423 0.0159945 0.0165987 0.0181423 0.0187762 0.0165987 0.017194 0.0187762 0.019401 0.017194 0.0177805 0.019401 0.0200168 0.0177805 0.0183586 0.0200168 0.0206241 0.0183586 0.0189287 0.0206241 0.0212233 0.0189287 0.0194911 0.0212233 0.0218149 0.0194911 0.0200462 0.0218149 0.0223992 0.0200462 0.0205944 0.0223992 0.0229769 0.0205944 0.0211362 0.0229769 0.0235482 0.0211362 0.0216719 0.0235482 0.0241138 0.0216719 0.022202 0.0241138 0.024674 0.022202 0.0227269 0.024674 0.0252294 0.0227269 0.023247 0.0252294 0.0257802 0.023247 0.0237627 0.0257802 0.0263271 0.0237627 0.0242744 0.0263271 0.0268702 0.0242744 0.0247824 0.0268702 0.0274101 0.0247824 0.0252871 0.0274101 0.027947 0.0252871 0.0257887 0.027947 0.0284813 0.0257887 0.0262876 0.0284813 0.0290133 0.0262876 0.0267841 0.0290133 0.0295432 0.0267841 0.0272784 0.0295432 0.0300713 0.0272784 0.0277707 0.0300713 0.0305978 0.0277707 0.0282612 0.0305978 0.0311229 0.0282612 0.0287501 0.0311229 0.0316467 0.0287501 0.0292375 0.0316467 0.0321694 0.0292375 0.0297236 0.0321694 0.032691 0.0297236 0.0302085 0.032691 0.0332117 0.0302085 0.0306923 0.0332117 0.0337316 0.0306923 0.0311749 0.0337316 0.0342505 0.0311749 0.0316566 0.0342505 0.0347686 0.0316566 0.0321371 0.0347686 0.0352859 0.0321371 0.0326166 0.0352859 0.0358023 0.0326166 0.0330951 0.0358023 0.0363177 0.0330951 0.0335725 0.0363177 0.0368322 0.0335725 0.0340487 0.0368322 0.0373455 0.0340487 0.0345236 0.0373455 0.0378577 0.0345236 0.0349973 0.0378577 0.0383687 0.0349973 0.0354696 0.0383687 0.0388782 0.0354696 0.0359404 0.0388782 0.0393863 0.0359404 0.0364096 0.0393863 0.0398926 0.0364096 0.036877 0.0398926 0.0403973 0.036877 0.0373426 0.0403973 0.0409 0.0373426 0.0378063 0.0409 0.0414006 0.0378063 0.0382679 0.0414006 0.0418991 0.0382679 0.0387273 0.0418991 0.0423952 0.0387273 0.0391843 0.0423952 0.0428889 0.0391843 0.0396389 0.0428889 0.04338 0.0396389 0.040091 0.04338 0.0438685 0.040091 0.0405403 0.0438685 0.044354 0.0405403 0.0409869 0.044354 0.0448367 0.0409869 0.0414306 0.0448367 0.0453163 0.0414306 0.0418713 0.0453163 0.0457928 0.0418713 0.042309 0.0457928 0.0462661 0.042309 0.0427435 0.0462661 0.0467362 0.0427435 0.0431748 0.0467362 0.0472028 0.0431748 0.0436029 0.0472028 0.0476661 0.0436029 0.0440276 0.0476661 0.0481259 0.0440276 0.0444489 0.0481259 0.0485822 0.0444489 0.0448668 0.0485822 0.049035 0.0448668 0.0452813 0.049035 0.0494842 0.0452813 0.0456923 0.0494842 0.0499299 0.0456923 0.0460998 0.0499299 0.0503719 0.0460998 0.0465037 0.0503719 0.0508103 0.0465037 0.0469041 0.0508103 0.051245 0.0469041 0.0473009 0.051245 0.0516761 0.0473009 0.0476941 0.0516761 0.0521035 0.0476941 0.0480837 0.0521035 0.0525272 0.0480837 0.0484698 0.0525272 0.0529473 0.0484698 0.0488521 0.0529473 0.0533636 0.0488521 0.0492308 0.0533636 0.0537761 0.0492308 0.0496059 0.0537761 0.054185 0.0496059 0.0499773 0.054185 0.05459 0.0499773 0.0503449 0.05459 0.0549912 0.0503449 0.0507089 0.0549912 0.0553887 0.0507089 0.0510691 0.0553887 0.0557822 0.0510691 0.0514255 0.0557822 0.0561719 0.0514255 0.0517782 0.0561719 0.0565578 0.0517782 0.052127 0.0565578 0.0569397 0.052127 0.0524721 0.0569397 0.0573177 0.0524721 0.0528133 0.0573177 0.0576919 0.0528133 0.0531507 0.0576919 0.0580621 0.0531507 0.0534844 0.0580621 0.0584285 0.0534844 0.0538142 0.0584285 0.058791 0.0538142 0.0541403 0.058791 0.0591498 0.0541403 0.0544628 0.0591498 0.059505 0.0544628 0.0547817 0.059505 0.0598565 0.0547817 0.055097 0.0598565 0.0602047 0.055097 0.0554091 0.0602047 0.0605496 0.0554091 0.0557178 0.0605496 0.0608915 0.0557178 0.0560236 0.0608915 0.0612307 0.0560236 0.0563265 0.0612307 0.0615673 0.0563265 0.0566269 0.0615673 0.0619017 0.0566269 0.056925 0.0619017 0.0622343 0.056925 0.057221 0.0622343 0.0625655 0.057221 0.0575155 0.0625655 0.0628957 0.0575155 0.0578087 0.0628957 0.0632255 0.0578087 0.058101 0.0632255 0.0635552 0.058101 0.0583929 0.0635552 0.0638855 0.0583929 0.0586848 0.0638855 0.064217 0.0586848 0.0589772 0.064217 0.0645501 0.0589772 0.0592706 0.0645501 0.0648855 0.0592706 0.0595655 0.0648855 0.0652238 0.0595655 0.0598622 0.0652238 0.0655654 0.0598622 0.0601614 0.0655654 0.0659111 0.0601614 0.0604634 0.0659111 0.0662612 0.0604634 0.0607686 0.0662612 0.0666162 0.0607686 0.0610774 0.0666162 0.0669765 0.0610774 0.0613899 0.0669765 0.0673423 0.0613899 0.0617065 0.0673423 0.0677137 0.0617065 0.0620272 0.0677137 0.0680909 0.0620272 0.062352 0.0680909 0.0684736 0.062352 0.0626807 0.0684736 0.0688616 0.0626807 0.063013 0.0688616 0.0692542 0.063013 0.0633483 0.0692542 0.0696507 0.0633483 0.0636861 0.0696507 0.0700502 0.0636861 0.0640254 0.0700502 0.0704513 0.0640254 0.0643651 0.0704513 0.0708526 0.0643651 0.0647039 0.0708526 0.0712524 0.0647039 0.0650404 0.0712524 0.0716489 0.0650404 0.0653729 0.0716489 0.0720401 0.0653729 0.0656996 0.0720401 0.0724239 0.0656996 0.0660187 0.0724239 0.0727983 0.0660187 0.0663285 0.0727983 0.0731613 0.0663285 0.066627 0.0731613 0.0735112 0.066627 0.0669128 0.0735112 0.0738463 0.0669128 0.0671843 0.0738463 0.0741654 0.0671843 0.0674405 0.0741654 0.0744676 0.0674405 0.0676804 0.0744676 0.0747524 0.0676804 0.0679035 0.0747524 0.0750195 0.0679035 0.0681097 0.0750195 0.0752692 0.0681097 0.068299 0.0752692 0.075502 0.068299 0.0684719 0.075502 0.0757187 0.0684719 0.0686291 0.0757187 0.0759204 0.0686291 0.0687716 0.0759204 0.076108 0.0687716 0.0689004 0.076108 0.0762827 0.0689004 0.0690169 0.0762827 0.0764453 0.0690169 0.0691221 0.0764453 0.0765964 0.0691221 0.069217 0.0765964 0.0767359 0.069217 0.0693024 0.0767359 0.0768637 0.0693024 0.0693784 0.0768637 0.0769789 0.0693784 0.0694451 0.0769789 0.0770805 0.0694451 0.0695019 0.0770805 0.0771676 0.0695019 0.0695486 0.0771676 0.0772396 0.0695486 0.069585 0.0772396 0.0772963 0.069585 0.0696118 0.0772963 0.0773385 0.0696118 0.0696303 0.0773385 0.0773673 0.0696303 0.0696419 0.0773673 0.0773842 0.0696419 0.0696474 0.0773842 0.0773911 0.0696474 0.069647 0.0773911 0.0773916 0.069647 0.0696417 0 -0.00108853 0 -0.00102668 -0.00108853 -0.00180612 -0.00102668 -0.00205188 -0.00180612 -0.00146421 -0.00205188 -0.00204495 -0.00146421 -0.00100538 -0.00204495 -0.00161433 -0.00100538 -0.00053069 -0.00161433 -0.00113798 -0.00053069 -3.49316e-06 -0.00113798 -0.000610334 -3.49316e-06 0.000568542 -0.000610334 -5.05804e-05 0.000568542 0.00117526 -5.05804e-05 0.000539325 0.00117526 0.00180989 0.000539325 0.00115319 0.00180989 0.00246652 0.00115319 0.00178507 0.00246652 0.0031402 0.00178507 0.00243029 0.0031402 0.00382681 0.00243029 0.0030851 0.00382681 0.00452289 0.0030851 0.00374652 0.00452289 0.00522548 0.00374652 0.00441209 0.00522548 0.00593199 0.00441209 0.00507971 0.00593199 0.00664016 0.00507971 0.00574757 0.00664016 0.00734801 0.00574757 0.00641402 0.00734801 0.0080538 0.00641402 0.00707765 0.0080538 0.00875601 0.00707765 0.0077372 0.00875601 0.00945334 0.0077372 0.00839157 0.00945334 0.0101447 0.00839157 0.00903984 0.0101447 0.0108291 0.00903984 0.00968123 0.0108291 0.0115059 0.00968123 0.0103151 0.0115059 0.0121744 0.0103151 0.0109409 0.0121744 0.0128342 0.0109409 0.0115583 0.0128342 0.0134849 0.0115583 0.0121671 0.0134849 0.0141264 0.0121671 0.0127669 0.0141264 0.0147585 0.0127669 0.0133578 0.0147585 0.0153812 0.0133578 0.0139398 0.0153812 0.0159945 0.0139398 0.0145129 0.0159945 0.0165987 0.0145129 0.0150773 0.0165987 0.017194 0.0150773 0.0156332 0.017194 0.0177805 0.0156332 0.0161808 0.0177805 0.0183586 0.0161808 0.0167204 0.0183586 0.0189287 0.0167204 0.0172524 0.0189287 0.0194911 0.0172524 0.017777 0.0194911 0.0200462 0.017777 0.0182947 0.0200462 0.0205944 0.0182947 0.0188057 0.0205944 0.0211362 0.0188057 0.0193106 0.0211362 0.0216719 0.0193106 0.0198097 0.0216719 0.022202 0.0198097 0.0203033 0.022202 0.0227269 0.0203033 0.0207919 0.0227269 0.023247 0.0207919 0.0212758 0.023247 0.0237627 0.0212758 0.0217554 0.0237627 0.0242744 0.0217554 0.022231 0.0242744 0.0247824 0.022231 0.022703 0.0247824 0.0252871 0.022703 0.0231716 0.0252871 0.0257887 0.0231716 0.0236373 0.0257887 0.0262876 0.0236373 0.0241001 0.0262876 0.0267841 0.0241001 0.0245605 0.0267841 0.0272784 0.0245605 0.0250185 0.0272784 0.0277707 0.0250185 0.0254745 0.0277707 0.0282612 0.0254745 0.0259286 0.0282612 0.0287501 0.0259286 0.026381 0.0287501 0.0292375 0.026381 0.0268317 0.0292375 0.0297236 0.0268317 0.0272811 0.0297236 0.0302085 0.0272811 0.027729 0.0302085 0.0306923 0.027729 0.0281756 0.0306923 0.0311749 0.0281756 0.028621 0.0311749 0.0316566 0.028621 0.0290652 0.0316566 0.0321371 0.0290652 0.0295083 0.0321371 0.0326166 0.0295083 0.0299501 0.0326166 0.0330951 0.0299501 0.0303907 0.0330951 0.0335725 0.0303907 0.0308301 0.0335725 0.0340487 0.0308301 0.0312683 0.0340487 0.0345236 0.0312683 0.031705 0.0345236 0.0349973 0.031705 0.0321404 0.0349973 0.0354696 0.0321404 0.0325743 0.0354696 0.0359404 0.0325743 0.0330066 0.0359404 0.0364096 0.0330066 0.0334372 0.0364096 0.036877 0.0334372 0.033866 0.036877 0.0373426 0.033866 0.0342929 0.0373426 0.0378063 0.0342929 0.0347178 0.0378063 0.0382679 0.0347178 0.0351407 0.0382679 0.0387273 0.0351407 0.0355612 0.0387273 0.0391843 0.0355612 0.0359795 0.0391843 0.0396389 0.0359795 0.0363953 0.0396389 0.040091 0.0363953 0.0368085 0.040091 0.0405403 0.0368085 0.0372191 0.0405403 0.0409869 0.0372191 0.0376269 0.0409869 0.0414306 0.0376269 0.0380319 0.0414306 0.0418713 0.0380319 0.0384339 0.0418713 0.042309 0.0384339 0.0388329 0.042309 0.0427435 0.0388329 0.0392288 0.0427435 0.0431748 0.0392288 0.0396216 0.0431748 0.0436029 0.0396216 0.0400111 0.0436029 0.0440276 0.0400111 0.0403974 0.0440276 0.0444489 0.0403974 0.0407804 0.0444489 0.0448668 0.0407804 0.04116 0.0448668 0.0452813 0.04116 0.0415363 0.0452813 0.0456923 0.0415363 0.0419091 0.0456923 0.0460998 0.0419091 0.0422785 0.0460998 0.0465037 0.0422785 0.0426444 0.0465037 0.0469041 0.0426444 0.0430068 0.0469041 0.0473009 0.0430068 0.0433657 0.0473009 0.0476941 0.0433657 0.0437211 0.0476941 0.0480837 0.0437211 0.044073 0.0480837 0.0484698 0.044073 0.0444213 0.0484698 0.0488521 0.0444213 0.0447661 0.0488521 0.0492308 0.0447661 0.0451073 0.0492308 0.0496059 0.0451073 0.0454449 0.0496059 0.0499773 0.0454449 0.0457788 0.0499773 0.0503449 0.0457788 0.0461092 0.0503449 0.0507089 0.0461092 0.0464359 0.0507089 0.0510691 0.0464359 0.0467589 0.0510691 0.0514255 0.0467589 0.0470782 0.0514255 0.0517782 0.0470782 0.0473938 0.0517782 0.052127 0.0473938 0.0477057 0.052127 0.0524721 0.0477057 0.0480139 0.0524721 0.0528133 0.0480139 0.0483183 0.0528133 0.0531507 0.0483183 0.048619 0.0531507 0.0534844 0.048619 0.0489159 0.0534844 0.0538142 0.0489159 0.0492092 0.0538142 0.0541403 0.0492092 0.0494987 0.0541403 0.0544628 0.0494987 0.0497846 0.0544628 0.0547817 0.0497846 0.050067 0.0547817 0.055097 0.050067 0.0503458 0.055097 0.0554091 0.0503458 0.0506213 0.0554091 0.0557178 0.0506213 0.0508934 0.0557178 0.0560236 0.0508934 0.0511625 0.0560236 0.0563265 0.0511625 0.0514287 0.0563265 0.0566269 0.0514287 0.0516921 0.0566269 0.056925 0.0516921 0.051953 0.056925 0.057221 0.051953 0.0522117 0.057221 0.0575155 0.0522117 0.0524685 0.0575155 0.0578087 0.0524685 0.0527236 0.0578087 0.058101 0.0527236 0.0529774 0.058101 0.0583929 0.0529774 0.0532303 0.0583929 0.0586848 0.0532303 0.0534827 0.0586848 0.0589772 0.0534827 0.053735 0.0589772 0.0592706 0.053735 0.0539875 0.0592706 0.0595655 0.0539875 0.0542406 0.0595655 0.0598622 0.0542406 0.0544948 0.0598622 0.0601614 0.0544948 0.0547505 0.0601614 0.0604634 0.0547505 0.0550079 0.0604634 0.0607686 0.0550079 0.0552675 0.0607686 0.0610774 0.055