# vtk DataFile Version 3.0
#This file was generated by the deal.II library on 2021/2/10 at 1:15:28
ASCII
DATASET UNSTRUCTURED_GRID

POINTS 43200 double
0 -0.5 0
0.0166667 -0.5 0
0 -0.483333 0
0.0166667 -0.483333 0
0.0166667 -0.5 0
0.0333333 -0.5 0
0.0166667 -0.483333 0
0.0333333 -0.483333 0
0.0333333 -0.5 0
0.05 -0.5 0
0.0333333 -0.483333 0
0.05 -0.483333 0
0.05 -0.5 0
0.0666667 -0.5 0
0.05 -0.483333 0
0.0666667 -0.483333 0
0.0666667 -0.5 0
0.0833333 -0.5 0
0.0666667 -0.483333 0
0.0833333 -0.483333 0
0.0833333 -0.5 0
0.1 -0.5 0
0.0833333 -0.483333 0
0.1 -0.483333 0
0.1 -0.5 0
0.116667 -0.5 0
0.1 -0.483333 0
0.116667 -0.483333 0
0.116667 -0.5 0
0.133333 -0.5 0
0.116667 -0.483333 0
0.133333 -0.483333 0
0.133333 -0.5 0
0.15 -0.5 0
0.133333 -0.483333 0
0.15 -0.483333 0
0.15 -0.5 0
0.166667 -0.5 0
0.15 -0.483333 0
0.166667 -0.483333 0
0.166667 -0.5 0
0.183333 -0.5 0
0.166667 -0.483333 0
0.183333 -0.483333 0
0.183333 -0.5 0
0.2 -0.5 0
0.183333 -0.483333 0
0.2 -0.483333 0
0.2 -0.5 0
0.216667 -0.5 0
0.2 -0.483333 0
0.216667 -0.483333 0
0.216667 -0.5 0
0.233333 -0.5 0
0.216667 -0.483333 0
0.233333 -0.483333 0
0.233333 -0.5 0
0.25 -0.5 0
0.233333 -0.483333 0
0.25 -0.483333 0
0.25 -0.5 0
0.266667 -0.5 0
0.25 -0.483333 0
0.266667 -0.483333 0
0.266667 -0.5 0
0.283333 -0.5 0
0.266667 -0.483333 0
0.283333 -0.483333 0
0.283333 -0.5 0
0.3 -0.5 0
0.283333 -0.483333 0
0.3 -0.483333 0
0.3 -0.5 0
0.316667 -0.5 0
0.3 -0.483333 0
0.316667 -0.483333 0
0.316667 -0.5 0
0.333333 -0.5 0
0.316667 -0.483333 0
0.333333 -0.483333 0
0.333333 -0.5 0
0.35 -0.5 0
0.333333 -0.483333 0
0.35 -0.483333 0
0.35 -0.5 0
0.366667 -0.5 0
0.35 -0.483333 0
0.366667 -0.483333 0
0.366667 -0.5 0
0.383333 -0.5 0
0.366667 -0.483333 0
0.383333 -0.483333 0
0.383333 -0.5 0
0.4 -0.5 0
0.383333 -0.483333 0
0.4 -0.483333 0
0.4 -0.5 0
0.416667 -0.5 0
0.4 -0.483333 0
0.416667 -0.483333 0
0.416667 -0.5 0
0.433333 -0.5 0
0.416667 -0.483333 0
0.433333 -0.483333 0
0.433333 -0.5 0
0.45 -0.5 0
0.433333 -0.483333 0
0.45 -0.483333 0
0.45 -0.5 0
0.466667 -0.5 0
0.45 -0.483333 0
0.466667 -0.483333 0
0.466667 -0.5 0
0.483333 -0.5 0
0.466667 -0.483333 0
0.483333 -0.483333 0
0.483333 -0.5 0
0.5 -0.5 0
0.483333 -0.483333 0
0.5 -0.483333 0
0.5 -0.5 0
0.516667 -0.5 0
0.5 -0.483333 0
0.516667 -0.483333 0
0.516667 -0.5 0
0.533333 -0.5 0
0.516667 -0.483333 0
0.533333 -0.483333 0
0.533333 -0.5 0
0.55 -0.5 0
0.533333 -0.483333 0
0.55 -0.483333 0
0.55 -0.5 0
0.566667 -0.5 0
0.55 -0.483333 0
0.566667 -0.483333 0
0.566667 -0.5 0
0.583333 -0.5 0
0.566667 -0.483333 0
0.583333 -0.483333 0
0.583333 -0.5 0
0.6 -0.5 0
0.583333 -0.483333 0
0.6 -0.483333 0
0.6 -0.5 0
0.616667 -0.5 0
0.6 -0.483333 0
0.616667 -0.483333 0
0.616667 -0.5 0
0.633333 -0.5 0
0.616667 -0.483333 0
0.633333 -0.483333 0
0.633333 -0.5 0
0.65 -0.5 0
0.633333 -0.483333 0
0.65 -0.483333 0
0.65 -0.5 0
0.666667 -0.5 0
0.65 -0.483333 0
0.666667 -0.483333 0
0.666667 -0.5 0
0.683333 -0.5 0
0.666667 -0.483333 0
0.683333 -0.483333 0
0.683333 -0.5 0
0.7 -0.5 0
0.683333 -0.483333 0
0.7 -0.483333 0
0.7 -0.5 0
0.716667 -0.5 0
0.7 -0.483333 0
0.716667 -0.483333 0
0.716667 -0.5 0
0.733333 -0.5 0
0.716667 -0.483333 0
0.733333 -0.483333 0
0.733333 -0.5 0
0.75 -0.5 0
0.733333 -0.483333 0
0.75 -0.483333 0
0.75 -0.5 0
0.766667 -0.5 0
0.75 -0.483333 0
0.766667 -0.483333 0
0.766667 -0.5 0
0.783333 -0.5 0
0.766667 -0.483333 0
0.783333 -0.483333 0
0.783333 -0.5 0
0.8 -0.5 0
0.783333 -0.483333 0
0.8 -0.483333 0
0.8 -0.5 0
0.816667 -0.5 0
0.8 -0.483333 0
0.816667 -0.483333 0
0.816667 -0.5 0
0.833333 -0.5 0
0.816667 -0.483333 0
0.833333 -0.483333 0
0.833333 -0.5 0
0.85 -0.5 0
0.833333 -0.483333 0
0.85 -0.483333 0
0.85 -0.5 0
0.866667 -0.5 0
0.85 -0.483333 0
0.866667 -0.483333 0
0.866667 -0.5 0
0.883333 -0.5 0
0.866667 -0.483333 0
0.883333 -0.483333 0
0.883333 -0.5 0
0.9 -0.5 0
0.883333 -0.483333 0
0.9 -0.483333 0
0.9 -0.5 0
0.916667 -0.5 0
0.9 -0.483333 0
0.916667 -0.483333 0
0.916667 -0.5 0
0.933333 -0.5 0
0.916667 -0.483333 0
0.933333 -0.483333 0
0.933333 -0.5 0
0.95 -0.5 0
0.933333 -0.483333 0
0.95 -0.483333 0
0.95 -0.5 0
0.966667 -0.5 0
0.95 -0.483333 0
0.966667 -0.483333 0
0.966667 -0.5 0
0.983333 -0.5 0
0.966667 -0.483333 0
0.983333 -0.483333 0
0.983333 -0.5 0
1 -0.5 0
0.983333 -0.483333 0
1 -0.483333 0
1 -0.5 0
1.01667 -0.5 0
1 -0.483333 0
1.01667 -0.483333 0
1.01667 -0.5 0
1.03333 -0.5 0
1.01667 -0.483333 0
1.03333 -0.483333 0
1.03333 -0.5 0
1.05 -0.5 0
1.03333 -0.483333 0
1.05 -0.483333 0
1.05 -0.5 0
1.06667 -0.5 0
1.05 -0.483333 0
1.06667 -0.483333 0
1.06667 -0.5 0
1.08333 -0.5 0
1.06667 -0.483333 0
1.08333 -0.483333 0
1.08333 -0.5 0
1.1 -0.5 0
1.08333 -0.483333 0
1.1 -0.483333 0
1.1 -0.5 0
1.11667 -0.5 0
1.1 -0.483333 0
1.11667 -0.483333 0
1.11667 -0.5 0
1.13333 -0.5 0
1.11667 -0.483333 0
1.13333 -0.483333 0
1.13333 -0.5 0
1.15 -0.5 0
1.13333 -0.483333 0
1.15 -0.483333 0
1.15 -0.5 0
1.16667 -0.5 0
1.15 -0.483333 0
1.16667 -0.483333 0
1.16667 -0.5 0
1.18333 -0.5 0
1.16667 -0.483333 0
1.18333 -0.483333 0
1.18333 -0.5 0
1.2 -0.5 0
1.18333 -0.483333 0
1.2 -0.483333 0
1.2 -0.5 0
1.21667 -0.5 0
1.2 -0.483333 0
1.21667 -0.483333 0
1.21667 -0.5 0
1.23333 -0.5 0
1.21667 -0.483333 0
1.23333 -0.483333 0
1.23333 -0.5 0
1.25 -0.5 0
1.23333 -0.483333 0
1.25 -0.483333 0
1.25 -0.5 0
1.26667 -0.5 0
1.25 -0.483333 0
1.26667 -0.483333 0
1.26667 -0.5 0
1.28333 -0.5 0
1.26667 -0.483333 0
1.28333 -0.483333 0
1.28333 -0.5 0
1.3 -0.5 0
1.28333 -0.483333 0
1.3 -0.483333 0
1.3 -0.5 0
1.31667 -0.5 0
1.3 -0.483333 0
1.31667 -0.483333 0
1.31667 -0.5 0
1.33333 -0.5 0
1.31667 -0.483333 0
1.33333 -0.483333 0
1.33333 -0.5 0
1.35 -0.5 0
1.33333 -0.483333 0
1.35 -0.483333 0
1.35 -0.5 0
1.36667 -0.5 0
1.35 -0.483333 0
1.36667 -0.483333 0
1.36667 -0.5 0
1.38333 -0.5 0
1.36667 -0.483333 0
1.38333 -0.483333 0
1.38333 -0.5 0
1.4 -0.5 0
1.38333 -0.483333 0
1.4 -0.483333 0
1.4 -0.5 0
1.41667 -0.5 0
1.4 -0.483333 0
1.41667 -0.483333 0
1.41667 -0.5 0
1.43333 -0.5 0
1.41667 -0.483333 0
1.43333 -0.483333 0
1.43333 -0.5 0
1.45 -0.5 0
1.43333 -0.483333 0
1.45 -0.483333 0
1.45 -0.5 0
1.46667 -0.5 0
1.45 -0.483333 0
1.46667 -0.483333 0
1.46667 -0.5 0
1.48333 -0.5 0
1.46667 -0.483333 0
1.48333 -0.483333 0
1.48333 -0.5 0
1.5 -0.5 0
1.48333 -0.483333 0
1.5 -0.483333 0
1.5 -0.5 0
1.51667 -0.5 0
1.5 -0.483333 0
1.51667 -0.483333 0
1.51667 -0.5 0
1.53333 -0.5 0
1.51667 -0.483333 0
1.53333 -0.483333 0
1.53333 -0.5 0
1.55 -0.5 0
1.53333 -0.483333 0
1.55 -0.483333 0
1.55 -0.5 0
1.56667 -0.5 0
1.55 -0.483333 0
1.56667 -0.483333 0
1.56667 -0.5 0
1.58333 -0.5 0
1.56667 -0.483333 0
1.58333 -0.483333 0
1.58333 -0.5 0
1.6 -0.5 0
1.58333 -0.483333 0
1.6 -0.483333 0
1.6 -0.5 0
1.61667 -0.5 0
1.6 -0.483333 0
1.61667 -0.483333 0
1.61667 -0.5 0
1.63333 -0.5 0
1.61667 -0.483333 0
1.63333 -0.483333 0
1.63333 -0.5 0
1.65 -0.5 0
1.63333 -0.483333 0
1.65 -0.483333 0
1.65 -0.5 0
1.66667 -0.5 0
1.65 -0.483333 0
1.66667 -0.483333 0
1.66667 -0.5 0
1.68333 -0.5 0
1.66667 -0.483333 0
1.68333 -0.483333 0
1.68333 -0.5 0
1.7 -0.5 0
1.68333 -0.483333 0
1.7 -0.483333 0
1.7 -0.5 0
1.71667 -0.5 0
1.7 -0.483333 0
1.71667 -0.483333 0
1.71667 -0.5 0
1.73333 -0.5 0
1.71667 -0.483333 0
1.73333 -0.483333 0
1.73333 -0.5 0
1.75 -0.5 0
1.73333 -0.483333 0
1.75 -0.483333 0
1.75 -0.5 0
1.76667 -0.5 0
1.75 -0.483333 0
1.76667 -0.483333 0
1.76667 -0.5 0
1.78333 -0.5 0
1.76667 -0.483333 0
1.78333 -0.483333 0
1.78333 -0.5 0
1.8 -0.5 0
1.78333 -0.483333 0
1.8 -0.483333 0
1.8 -0.5 0
1.81667 -0.5 0
1.8 -0.483333 0
1.81667 -0.483333 0
1.81667 -0.5 0
1.83333 -0.5 0
1.81667 -0.483333 0
1.83333 -0.483333 0
1.83333 -0.5 0
1.85 -0.5 0
1.83333 -0.483333 0
1.85 -0.483333 0
1.85 -0.5 0
1.86667 -0.5 0
1.85 -0.483333 0
1.86667 -0.483333 0
1.86667 -0.5 0
1.88333 -0.5 0
1.86667 -0.483333 0
1.88333 -0.483333 0
1.88333 -0.5 0
1.9 -0.5 0
1.88333 -0.483333 0
1.9 -0.483333 0
1.9 -0.5 0
1.91667 -0.5 0
1.9 -0.483333 0
1.91667 -0.483333 0
1.91667 -0.5 0
1.93333 -0.5 0
1.91667 -0.483333 0
1.93333 -0.483333 0
1.93333 -0.5 0
1.95 -0.5 0
1.93333 -0.483333 0
1.95 -0.483333 0
1.95 -0.5 0
1.96667 -0.5 0
1.95 -0.483333 0
1.96667 -0.483333 0
1.96667 -0.5 0
1.98333 -0.5 0
1.96667 -0.483333 0
1.98333 -0.483333 0
1.98333 -0.5 0
2 -0.5 0
1.98333 -0.483333 0
2 -0.483333 0
2 -0.5 0
2.01667 -0.5 0
2 -0.483333 0
2.01667 -0.483333 0
2.01667 -0.5 0
2.03333 -0.5 0
2.01667 -0.483333 0
2.03333 -0.483333 0
2.03333 -0.5 0
2.05 -0.5 0
2.03333 -0.483333 0
2.05 -0.483333 0
2.05 -0.5 0
2.06667 -0.5 0
2.05 -0.483333 0
2.06667 -0.483333 0
2.06667 -0.5 0
2.08333 -0.5 0
2.06667 -0.483333 0
2.08333 -0.483333 0
2.08333 -0.5 0
2.1 -0.5 0
2.08333 -0.483333 0
2.1 -0.483333 0
2.1 -0.5 0
2.11667 -0.5 0
2.1 -0.483333 0
2.11667 -0.483333 0
2.11667 -0.5 0
2.13333 -0.5 0
2.11667 -0.483333 0
2.13333 -0.483333 0
2.13333 -0.5 0
2.15 -0.5 0
2.13333 -0.483333 0
2.15 -0.483333 0
2.15 -0.5 0
2.16667 -0.5 0
2.15 -0.483333 0
2.16667 -0.483333 0
2.16667 -0.5 0
2.18333 -0.5 0
2.16667 -0.483333 0
2.18333 -0.483333 0
2.18333 -0.5 0
2.2 -0.5 0
2.18333 -0.483333 0
2.2 -0.483333 0
2.2 -0.5 0
2.21667 -0.5 0
2.2 -0.483333 0
2.21667 -0.483333 0
2.21667 -0.5 0
2.23333 -0.5 0
2.21667 -0.483333 0
2.23333 -0.483333 0
2.23333 -0.5 0
2.25 -0.5 0
2.23333 -0.483333 0
2.25 -0.483333 0
2.25 -0.5 0
2.26667 -0.5 0
2.25 -0.483333 0
2.26667 -0.483333 0
2.26667 -0.5 0
2.28333 -0.5 0
2.26667 -0.483333 0
2.28333 -0.483333 0
2.28333 -0.5 0
2.3 -0.5 0
2.28333 -0.483333 0
2.3 -0.483333 0
2.3 -0.5 0
2.31667 -0.5 0
2.3 -0.483333 0
2.31667 -0.483333 0
2.31667 -0.5 0
2.33333 -0.5 0
2.31667 -0.483333 0
2.33333 -0.483333 0
2.33333 -0.5 0
2.35 -0.5 0
2.33333 -0.483333 0
2.35 -0.483333 0
2.35 -0.5 0
2.36667 -0.5 0
2.35 -0.483333 0
2.36667 -0.483333 0
2.36667 -0.5 0
2.38333 -0.5 0
2.36667 -0.483333 0
2.38333 -0.483333 0
2.38333 -0.5 0
2.4 -0.5 0
2.38333 -0.483333 0
2.4 -0.483333 0
2.4 -0.5 0
2.41667 -0.5 0
2.4 -0.483333 0
2.41667 -0.483333 0
2.41667 -0.5 0
2.43333 -0.5 0
2.41667 -0.483333 0
2.43333 -0.483333 0
2.43333 -0.5 0
2.45 -0.5 0
2.43333 -0.483333 0
2.45 -0.483333 0
2.45 -0.5 0
2.46667 -0.5 0
2.45 -0.483333 0
2.46667 -0.483333 0
2.46667 -0.5 0
[...]
POINT_DATA 43200
SCALARS x1_displacement double 1
LOOKUP_TABLE default
0 -2.73406e-05 0 3.04113e-05 -2.73406e-05 -9.86933e-06 3.04113e-05 7.57217e-05 -9.86933e-06 4.65139e-05 7.57217e-05 0.000141063 4.65139e-05 0.000134975 0.000141063 0.00022763 0.000134975 0.000251706 0.00022763 0.000335426 0.000251706 0.000394512 0.000335426 0.000464212 0.000394512 0.000562343 0.000464212 0.000613877 0.000562343 0.000754876 0.000613877 0.000784497 0.000754876 0.000972225 0.000784497 0.000976288 0.000972225 0.00121471 0.000976288 0.00118952 0.00121471 0.00148266 0.00118952 0.0014244 0.00148266 0.00177623 0.0014244 0.00168098 0.00177623 0.00209527 0.00168098 0.00195907 0.00209527 0.00243917 0.00195907 0.00225813 0.00243917 0.00280686 0.00225813 0.00257725 0.00280686 0.00319671 0.00257725 0.00291512 0.00319671 0.00360662 0.00291512 0.00327008 0.00360662 0.00403408 0.00327008 0.00364017 0.00403408 0.00447635 0.00364017 0.00402322 0.00447635 0.00493061 0.00402322 0.00441706 0.00493061 0.00539416 0.00441706 0.00481954 0.00539416 0.00586459 0.00481954 0.00522876 0.00586459 0.00633993 0.00522876 0.00564311 0.00633993 0.00681867 0.00564311 0.00606134 0.00681867 0.00729985 0.00606134 0.00648257 0.00729985 0.00778296 0.00648257 0.00690627 0.00778296 0.00826784 0.00690627 0.00733214 0.00826784 0.00875455 0.00733214 0.00776007 0.00875455 0.00924322 0.00776007 0.00818998 0.00924322 0.00973388 0.00818998 0.00862174 0.00973388 0.0102263 0.00862174 0.00905505 0.0102263 0.0107201 0.00905505 0.00948937 0.0107201 0.0112142 0.00948937 0.0099239 0.0112142 0.0117074 0.0099239 0.0103576 0.0117074 0.0121982 0.0103576 0.010789 0.0121982 0.0126845 0.010789 0.0112168 0.0126845 0.0131644 0.0112168 0.0116393 0.0131644 0.013636 0.0116393 0.0120549 0.013636 0.0140972 0.0120549 0.0124621 0.0140972 0.0145465 0.0124621 0.0128595 0.0145465 0.0149823 0.0128595 0.0132461 0.0149823 0.0154038 0.0132461 0.0136209 0.0154038 0.0158102 0.0136209 0.0139835 0.0158102 0.0162013 0.0139835 0.0143335 0.0162013 0.0165771 0.0143335 0.0146709 0.0165771 0.0169378 0.0146709 0.014996 0.0169378 0.0172842 0.014996 0.0153091 0.0172842 0.0176169 0.0153091 0.0156107 0.0176169 0.0179367 0.0156107 0.0159015 0.0179367 0.0182446 0.0159015 0.0161822 0.0182446 0.0185416 0.0161822 0.0164535 0.0185416 0.0188286 0.0164535 0.0167162 0.0188286 0.0191064 0.0167162 0.0169709 0.0191064 0.0193759 0.0169709 0.0172183 0.0193759 0.0196379 0.0172183 0.017459 0.0196379 0.0198929 0.017459 0.0176935 0.0198929 0.0201417 0.0176935 0.0179224 0.0201417 0.0203846 0.0179224 0.0181459 0.0203846 0.020622 0.0181459 0.0183644 0.020622 0.0208542 0.0183644 0.0185781 0.0208542 0.0210815 0.0185781 0.0187873 0.0210815 0.0213039 0.0187873 0.0189919 0.0213039 0.0215215 0.0189919 0.0191922 0.0215215 0.0217344 0.0191922 0.019388 0.0217344 0.0219424 0.019388 0.0195794 0.0219424 0.0221455 0.0195794 0.0197663 0.0221455 0.0223437 0.0197663 0.0199486 0.0223437 0.0225367 0.0199486 0.0201262 0.0225367 0.0227244 0.0201262 0.020299 0.0227244 0.0229067 0.020299 0.020467 0.0229067 0.0230835 0.020467 0.0206298 0.0230835 0.0232546 0.0206298 0.0207876 0.0232546 0.0234199 0.0207876 0.0209401 0.0234199 0.0235794 0.0209401 0.0210873 0.0235794 0.0237328 0.0210873 0.0212291 0.0237328 0.0238803 0.0212291 0.0213655 0.0238803 0.0240217 0.0213655 0.0214965 0.0240217 0.024157 0.0214965 0.021622 0.024157 0.0242864 0.021622 0.021742 0.0242864 0.0244097 0.021742 0.0218567 0.0244097 0.0245272 0.0218567 0.021966 0.0245272 0.0246388 0.021966 0.02207 0.0246388 0.0247447 0.02207 0.0221689 0.0247447 0.024845 0.0221689 0.0222627 0.024845 0.0249399 0.0222627 0.0223515 0.0249399 0.0250295 0.0223515 0.0224355 0.0250295 0.025114 0.0224355 0.0225149 0.025114 0.0251935 0.0225149 0.0225897 0.0251935 0.0252682 0.0225897 0.0226602 0.0252682 0.0253384 0.0226602 0.0227264 0.0253384 0.0254041 0.0227264 0.0227886 0.0254041 0.0254657 0.0227886 0.022847 0.0254657 0.0255232 0.022847 0.0229016 0.0255232 0.0255769 0.0229016 0.0229527 0.0255769 0.0256269 0.0229527 0.0230004 0.0256269 0.0256735 0.0230004 0.0230449 0.0256735 0.0257168 0.0230449 0.0230864 0.0257168 0.025757 0.0230864 0.0231249 0.025757 0.0257943 0.0231249 0.0231607 0.0257943 0.0258288 0.0231607 0.023194 0.0258288 0.0258607 0.023194 0.0232247 0.0258607 0.0258901 0.0232247 0.0232532 0.0258901 0.0259172 0.0232532 0.0232795 0.0259172 0.0259422 0.0232795 0.0233038 0.0259422 0.0259651 0.0233038 0.0233261 0.0259651 0.0259861 0.0233261 0.0233467 0.0259861 0.0260054 0.0233467 0.0233656 0.0260054 0.026023 0.0233656 0.0233829 0.026023 0.026039 0.0233829 0.0233987 0.026039 0.0260536 0.0233987 0.0234131 0.0260536 0.0260669 0.0234131 0.0234263 0.0260669 0.0260789 0.0234263 0.0234383 0.0260789 0.0260898 0.0234383 0.0234492 0.0260898 0.0260996 0.0234492 0.0234591 0.0260996 0.0261085 0.0234591 0.023468 0.0261085 0.0261164 0.023468 0.023476 0.0261164 0.0261235 0.023476 0.0234832 0.0261235 0.0261298 0.0234832 0.0234897 0.0261298 0.0261354 0.0234897 0.0234955 0.0261354 0.0261404 0.0234955 0.0235007 0.0261404 0.0261448 0.0235007 0.0235052 0.0261448 0.0261486 0.0235052 0.0235093 0.0261486 0.0261519 0.0235093 0.0235128 0.0261519 0.0261548 0.0235128 0.0235159 0.0261548 0.0261573 0.0235159 0.0235186 0.0261573 0.0261594 0.0235186 0.023521 0.0261594 0.0261612 0.023521 0.023523 0.0261612 0.0261626 0.023523 0.0235247 0.0261626 0.0261638 0.0235247 0.0235261 0.0261638 0.0261648 0.0235261 0.0235273 0.0261648 0.0261655 0.0235273 0.0235282 0.0261655 0.0261661 0.0235282 0.023529 0.0261661 0.0261665 0.023529 0.0235296 0.0261665 0.0261667 0.0235296 0.02353 0.0261667 0.0261668 0.02353 0.0235303 0.0261668 0.0261668 0.0235303 0.0235305 0.0261668 0.0261666 0.0235305 0.0235305 0.0261666 0.0261664 0.0235305 0.0235305 0.0261664 0.0261661 0.0235305 0.0235304 0.0261661 0.0261658 0.0235304 0.0235302 0.0261658 0.0261654 0.0235302 0.02353 0.0261654 0.026165 0.02353 0.0235297 0.026165 0.0261645 0.0235297 0.0235294 0.0261645 0.026164 0.0235294 0.023529 0.026164 0.0261635 0.023529 0.0235286 0.0261635 0.026163 0.0235286 0.0235282 0.026163 0.0261625 0.0235282 0.0235278 0.0261625 0.0261619 0.0235278 0.0235274 0.0261619 0.0261614 0.0235274 0.0235269 0.0261614 0.0261609 0.0235269 0.0235265 0.0261609 0.0261604 0.0235265 0.0235261 0.0261604 0.0261599 0.0235261 0.0235257 0.0261599 0.0261594 0.0235257 0.0235252 0.0261594 0.0261589 0.0235252 0.0235248 0.0261589 0.0261585 0.0235248 0.0235245 0.0261585 0.026158 0.0235245 0.0235241 0.026158 0.0261576 0.0235241 0.0235237 0.0261576 0.0261573 0.0235237 0.0235234 0.0261573 0.0261569 0.0235234 0.0235231 0.0261569 0.0261566 0.0235231 0.0235228 0.0261566 0.0261562 0.0235228 0.0235225 0.0261562 0.026156 0.0235225 0.0235223 0.026156 0.0261557 0.0235223 0.023522 0.0261557 0.0261555 0.023522 0.0235218 0.0261555 0.0261553 0.0235218 0.0235216 0.0261553 0.0261551 0.0235216 0.0235215 0.0261551 0.0261549 0.0235215 0.0235213 0.0261549 0.0261548 0.0235213 0.0235212 0.0261548 0.0261547 0.0235212 0.0235211 0.0261547 0.0261546 0.0235211 0.023521 0.0261546 0.0261545 0.023521 0.0235209 0.0261545 0.0261544 0.0235209 0.0235208 0.0261544 0.0261544 0.0235208 0.0235208 0.0261544 0.0261544 0.0235208 0.0235208 0.0261544 0.0261543 0.0235208 0.0235207 0.0261543 0.0261543 0.0235207 0.0235207 0.0261543 0.0261543 0.0235207 0.0235207 0.0261543 0.0261543 0.0235207 0.0235207 0.0261543 0.0261543 0.0235207 0.0235207 0.0261543 0.0261543 0.0235207 0.0235207 0 3.04113e-05 0 4.52728e-05 3.04113e-05 7.57217e-05 4.52728e-05 0.000107147 7.57217e-05 0.000141063 0.000107147 0.000180177 0.000141063 0.00022763 0.000180177 0.000265968 0.00022763 0.000335426 0.000265968 0.000366004 0.000335426 0.000464212 0.000366004 0.000481378 0.000464212 0.000613877 0.000481378 0.000612893 0.000613877 0.000784497 0.000612893 0.000761207 0.000784497 0.000976288 0.000761207 0.000926891 0.000976288 0.00118952 0.000926891 0.00111043 0.00118952 0.0014244 0.00111043 0.00131219 0.0014244 0.00168098 0.00131219 0.00153235 0.00168098 0.00195907 0.00153235 0.00177086 0.00195907 0.00225813 0.00177086 0.00202736 0.00225813 0.00257725 0.00202736 0.00230115 0.00257725 0.00291512 0.00230115 0.00259115 0.00291512 0.00327008 0.00259115 0.00289598 0.00327008 0.00364017 0.00289598 0.00321395 0.00364017 0.00402322 0.00321395 0.00354319 0.00402322 0.00441706 0.00354319 0.00388179 0.00441706 0.00481954 0.00388179 0.0042279 0.00481954 0.00522876 0.0042279 0.00457988 0.00522876 0.00564311 0.00457988 0.00493635 0.00564311 0.00606134 0.00493635 0.00529628 0.00606134 0.00648257 0.00529628 0.00565897 0.00648257 0.00690627 0.00565897 0.00602403 0.00690627 0.00733214 0.00602403 0.00639128 0.00733214 0.00776007 0.00639128 0.00676069 0.00776007 0.00818998 0.00676069 0.00713226 0.00818998 0.00862174 0.00713226 0.00750591 0.00862174 0.00905505 0.00750591 0.00788142 0.00905505 0.00948937 0.00788142 0.00825833 0.00948937 0.0099239 0.00825833 0.00863594 0.0099239 0.0103576 0.00863594 0.00901329 0.0103576 0.010789 0.00901329 0.0093892 0.010789 0.0112168 0.0093892 0.00976234 0.0112168 0.0116393 0.00976234 0.0101313 0.0116393 0.0120549 0.0101313 0.0104947 0.0120549 0.0124621 0.0104947 0.0108511 0.0124621 0.0128595 0.0108511 0.0111995 0.0128595 0.0132461 0.0111995 0.0115388 0.0132461 0.0136209 0.0115388 0.0118685 0.0136209 0.0139835 0.0118685 0.0121879 0.0139835 0.0143335 0.0121879 0.0124969 0.0143335 0.0146709 0.0124969 0.0127955 0.0146709 0.014996 0.0127955 0.0130839 0.014996 0.0153091 0.0130839 0.0133624 0.0153091 0.0156107 0.0133624 0.0136314 0.0156107 0.0159015 0.0136314 0.0138915 0.0159015 0.0161822 0.0138915 0.0141431 0.0161822 0.0164535 0.0141431 0.014387 0.0164535 0.0167162 0.014387 0.0146237 0.0167162 0.0169709 0.0146237 0.0148536 0.0169709 0.0172183 0.0148536 0.0150774 0.0172183 0.017459 0.0150774 0.0152956 0.017459 0.0176935 0.0152956 0.0155084 0.0176935 0.0179224 0.0155084 0.0157164 0.0179224 0.0181459 0.0157164 0.0159197 0.0181459 0.0183644 0.0159197 0.0161187 0.0183644 0.0185781 0.0161187 0.0163135 0.0185781 0.0187873 0.0163135 0.0165042 0.0187873 0.0189919 0.0165042 0.016691 0.0189919 0.0191922 0.016691 0.0168738 0.0191922 0.019388 0.0168738 0.0170527 0.019388 0.0195794 0.0170527 0.0172276 0.0195794 0.0197663 0.0172276 0.0173984 0.0197663 0.0199486 0.0173984 0.0175652 0.0199486 0.0201262 0.0175652 0.0177277 0.0201262 0.020299 0.0177277 0.0178859 0.020299 0.020467 0.0178859 0.0180397 0.020467 0.0206298 0.0180397 0.018189 0.0206298 0.0207876 0.018189 0.0183336 0.0207876 0.0209401 0.0183336 0.0184735 0.0209401 0.0210873 0.0184735 0.0186087 0.0210873 0.0212291 0.0186087 0.0187389 0.0212291 0.0213655 0.0187389 0.0188644 0.0213655 0.0214965 0.0188644 0.0189848 0.0214965 0.021622 0.0189848 0.0191004 0.021622 0.021742 0.0191004 0.0192111 0.021742 0.0218567 0.0192111 0.0193169 0.0218567 0.021966 0.0193169 0.0194179 0.021966 0.02207 0.0194179 0.0195141 0.02207 0.0221689 0.0195141 0.0196057 0.0221689 0.0222627 0.0196057 0.0196926 0.0222627 0.0223515 0.0196926 0.0197751 0.0223515 0.0224355 0.0197751 0.0198532 0.0224355 0.0225149 0.0198532 0.0199271 0.0225149 0.0225897 0.0199271 0.0199968 0.0225897 0.0226602 0.0199968 0.0200626 0.0226602 0.0227264 0.0200626 0.0201245 0.0227264 0.0227886 0.0201245 0.0201828 0.0227886 0.022847 0.0201828 0.0202375 0.022847 0.0229016 0.0202375 0.0202888 0.0229016 0.0229527 0.0202888 0.0203369 0.0229527 0.0230004 0.0203369 0.0203819 0.0230004 0.0230449 0.0203819 0.0204239 0.0230449 0.0230864 0.0204239 0.0204631 0.0230864 0.0231249 0.0204631 0.0204996 0.0231249 0.0231607 0.0204996 0.0205336 0.0231607 0.023194 0.0205336 0.0205652 0.023194 0.0232247 0.0205652 0.0205946 0.0232247 0.0232532 0.0205946 0.0206217 0.0232532 0.0232795 0.0206217 0.0206469 0.0232795 0.0233038 0.0206469 0.0206702 0.0233038 0.0233261 0.0206702 0.0206917 0.0233261 0.0233467 0.0206917 0.0207115 0.0233467 0.0233656 0.0207115 0.0207297 0.0233656 0.0233829 0.0207297 0.0207464 0.0233829 0.0233987 0.0207464 0.0207618 0.0233987 0.0234131 0.0207618 0.0207758 0.0234131 0.0234263 0.0207758 0.0207887 0.0234263 0.0234383 0.0207887 0.0208004 0.0234383 0.0234492 0.0208004 0.0208111 0.0234492 0.0234591 0.0208111 0.0208209 0.0234591 0.023468 0.0208209 0.0208297 0.023468 0.023476 0.0208297 0.0208376 0.023476 0.0234832 0.0208376 0.0208448 0.0234832 0.0234897 0.0208448 0.0208513 0.0234897 0.0234955 0.0208513 0.0208572 0.0234955 0.0235007 0.0208572 0.0208624 0.0235007 0.0235052 0.0208624 0.020867 0.0235052 0.0235093 0.020867 0.0208712 0.0235093 0.0235128 0.0208712 0.0208748 0.0235128 0.0235159 0.0208748 0.0208781 0.0235159 0.0235186 0.0208781 0.0208809 0.0235186 0.023521 0.0208809 0.0208834 0.023521 0.023523 0.0208834 0.0208855 0.023523 0.0235247 0.0208855 0.0208874 0.0235247 0.0235261 0.0208874 0.020889 0.0235261 0.0235273 0.020889 0.0208903 0.0235273 0.0235282 0.0208903 0.0208914 0.0235282 0.023529 0.0208914 0.0208924 0.023529 0.0235296 0.0208924 0.0208931 0.0235296 0.02353 0.0208931 0.0208937 0.02353 0.0235303 0.0208937 0.0208941 0.0235303 0.0235305 0.0208941 0.0208944 0.0235305 0.0235305 0.0208944 0.0208947 0.0235305 0.0235305 0.0208947 0.0208948 0.0235305 0.0235304 0.0208948 0.0208948 0.0235304 0.0235302 0.0208948 0.0208947 0.0235302 0.02353 0.0208947 0.0208946 0.02353 0.0235297 0.0208946 0.0208945 0.0235297 0.0235294 0.0208945 0.0208943 0.0235294 0.023529 0.0208943 0.020894 0.023529 0.0235286 0.020894 0.0208937 0.0235286 0.0235282 0.0208937 0.0208934 0.0235282 0.0235278 0.0208934 0.0208931 0.0235278 0.0235274 0.0208931 0.0208928 0.0235274 0.0235269 0.0208928 0.0208925 0.0235269 0.0235265 0.0208925 0.0208921 0.0235265 0.0235261 0.0208921 0.0208918 0.0235261 0.0235257 0.0208918 0.0208914 0.0235257 0.0235252 0.0208914 0.0208911 0.0235252 0.0235248 0.0208911 0.0208907 0.0235248 0.0235245 0.0208907 0.0208904 0.0235245 0.0235241 0.0208904 0.0208901 0.0235241 0.0235237 0.0208901 0.0208898 0.0235237 0.0235234 0.0208898 0.0208895 0.0235234 0.0235231 0.0208895 0.0208892 0.0235231 0.0235228 0.0208892 0.020889 0.0235228 0.0235225 0.020889 0.0208887 0.0235225 0.0235223 0.0208887 0.0208885 0.0235223 0.023522 0.0208885 0.0208883 0.023522 0.0235218 0.0208883 0.0208881 0.0235218 0.0235216 0.0208881 0.020888 0.0235216 0.0235215 0.020888 0.0208878 0.0235215 0.0235213 0.0208878 0.0208877 0.0235213 0.0235212 0.0208877 0.0208875 0.0235212 0.0235211 0.0208875 0.0208874 0.0235211 0.023521 0.0208874 0.0208874 0.023521 0.0235209 0.0208874 0.0208873 0.0235209 0.0235208 0.0208873 0.0208872 0.0235208 0.0235208 0.0208872 0.0208872 0.0235208 0.0235208 0.0208872 0.0208871 0.0235208 0.0235207 0.0208871 0.0208871 0.0235207 0.0235207 0.0208871 0.0208871 0.0235207 0.0235207 0.0208871 0.0208871 0.0235207 0.0235207 0.0208871 0.0208871 0.0235207 0.0235207 0.0208871 0.0208871 0.0235207 0.0235207 0.0208871 0.0208871 0 4.52728e-05 0 4.83792e-05 4.52728e-05 0.000107147 4.83792e-05 0.000111589 0.000107147 0.000180177 0.000111589 0.000184348 0.000180177 0.000265968 0.000184348 0.000265375 0.000265968 0.000366004 0.000265375 0.000355615 0.000366004 0.000481378 0.000355615 0.000456356 0.000481378 0.000612893 0.000456356 0.000568818 0.000612893 0.000761207 0.000568818 0.000694073 0.000761207 0.000926891 0.000694073 0.00083305 0.000926891 0.00111043 0.00083305 0.000986544 0.00111043 0.00131219 0.000986544 0.0011552 0.00131219 0.00153235 0.0011552 0.00133946 0.00153235 0.00177086 0.00133946 0.00153953 0.00177086 0.00202736 0.00153953 0.00175529 0.00202736 0.00230115 0.00175529 0.00198627 0.00230115 0.00259115 0.00198627 0.00223158 0.00259115 0.00289598 0.00223158 0.00248998 0.00289598 0.00321395 0.00248998 0.00275986 0.00321395 0.00354319 0.00275986 0.00303943 0.00354319 0.00388179 0.00303943 0.00332681 0.00388179 0.0042279 0.00332681 0.00362022 0.0042279 0.00457988 0.00362022 0.00391811 0.00457988 0.00493635 0.00391811 0.00421925 0.00493635 0.00529628 0.00421925 0.00452279 0.00529628 0.00565897 0.00452279 0.00482828 0.00565897 0.00602403 0.00482828 0.00513558 0.00602403 0.00639128 0.00513558 0.00544483 0.00639128 0.00676069 0.00544483 0.00575625 0.00676069 0.00713226 0.00575625 0.00607011 0.00713226 0.00750591 0.00607011 0.00638656 0.00750591 0.00788142 0.00638656 0.00670557 0.00788142 0.00825833 0.00670557 0.00702683 0.00825833 0.00863594 0.00702683 0.00734975 0.00863594 0.00901329 0.00734975 0.00767343 0.00901329 0.0093892 0.00767343 0.00799672 0.0093892 0.00976234 0.00799672 0.00831833 0.00976234 0.0101313 0.00831833 0.00863684 0.0101313 0.0104947 0.00863684 0.00895089 0.0104947 0.0108511 0.00895089 0.00925921 0.0108511 0.0111995 0.00925921 0.00956071 0.0111995 0.0115388 0.00956071 0.00985455 0.0115388 0.0118685 0.00985455 0.0101401 0.0118685 0.0121879 0.0101401 0.0104171 0.0121879 0.0124969 0.0104171 0.0106853 0.0124969 0.0127955 0.0106853 0.0109449 0.0127955 0.0130839 0.0109449 0.0111959 0.0130839 0.0133624 0.0111959 0.0114389 0.0133624 0.0136314 0.0114389 0.0116742 0.0136314 0.0138915 0.0116742 0.0119023 0.0138915 0.0141431 0.0119023 0.0121236 0.0141431 0.014387 0.0121236 0.0123387 0.014387 0.0146237 0.0123387 0.012548 0.0146237 0.0148536 0.012548 0.012752 0.0148536 0.0150774 0.012752 0.012951 0.0150774 0.0152956 0.012951 0.0131456 0.0152956 0.0155084 0.0131456 0.0133358 0.0155084 0.0157164 0.0133358 0.0135222 0.0157164 0.0159197 0.0135222 0.0137047 0.0159197 0.0161187 0.0137047 0.0138837 0.0161187 0.0163135 0.0138837 0.0140592 0.0163135 0.0165042 0.0140592 0.0142313 0.0165042 0.016691 0.0142313 0.0144 0.016691 0.0168738 0.0144 0.0145654 0.0168738 0.0170527 0.0145654 0.0147274 0.0170527 0.0172276 0.0147274 0.0148859 0.0172276 0.0173984 0.0148859 0.0150409 0.0173984 0.0175652 0.0150409 0.0151923 0.0175652 0.0177277 0.0151923 0.01534 0.0177277 0.0178859 0.01534 0.0154838 0.0178859 0.0180397 0.0154838 0.0156237 0.0180397 0.018189 0.0156237 0.0157596 0.018189 0.0183336 0.0157596 0.0158913 0.0183336 0.0184735 0.0158913 0.0160188 0.0184735 0.0186087 0.0160188 0.016142 0.0186087 0.0187389 0.016142 0.0162609 0.0187389 0.0188644 0.0162609 0.0163753 0.0188644 0.0189848 0.0163753 0.0164854 0.0189848 0.0191004 0.0164854 0.016591 0.0191004 0.0192111 0.016591 0.0166922 0.0192111 0.0193169 0.0166922 0.0167891 0.0193169 0.0194179 0.0167891 0.0168816 0.0194179 0.0195141 0.0168816 0.0169698 0.0195141 0.0196057 0.0169698 0.0170538 0.0196057 0.0196926 0.0170538 0.0171337 0.0196926 0.0197751 0.0171337 0.0172095 0.0197751 0.0198532 0.0172095 0.0172814 0.0198532 0.0199271 0.0172814 0.0173495 0.0199271 0.0199968 0.0173495 0.0174138 0.0199968 0.0200626 0.0174138 0.0174746 0.0200626 0.0201245 0.0174746 0.0175318 0.0201245 0.0201828 0.0175318 0.0175858 0.0201828 0.0202375 0.0175858 0.0176365 0.0202375 0.0202888 0.0176365 0.0176841 0.0202888 0.0203369 0.0176841 0.0177288 0.0203369 0.0203819 0.0177288 0.0177707 0.0203819 0.0204239 0.0177707 0.0178099 0.0204239 0.0204631 0.0178099 0.0178465 0.0204631 0.0204996 0.0178465 0.0178806 0.0204996 0.0205336 0.0178806 0.0179125 0.0205336 0.0205652 0.0179125 0.0179422 0.0205652 0.0205946 0.0179422 0.0179697 0.0205946 0.0206217 0.0179697 0.0179953 0.0206217 0.0206469 0.0179953 0.0180191 0.0206469 0.0206702 0.0180191 0.0180411 0.0206702 0.0206917 0.0180411 0.0180614 0.0206917 0.0207115 0.0180614 0.0180802 0.0207115 0.0207297 0.0180802 0.0180975 0.0207297 0.0207464 0.0180975 0.0181134 0.0207464 0.0207618 0.0181134 0.0181281 0.0207618 0.0207758 0.0181281 0.0181416 0.0207758 0.0207887 0.0181416 0.0181539 0.0207887 0.0208004 0.0181539 0.0181652 0.0208004 0.0208111 0.0181652 0.0181755 0.0208111 0.0208209 0.0181755 0.0181849 0.0208209 0.0208297 0.0181849 0.0181935 0.0208297 0.0208376 0.0181935 0.0182012 0.0208376 0.0208448 0.0182012 0.0182083 0.0208448 0.0208513 0.0182083 0.0182146 0.0208513 0.0208572 0.0182146 0.0182203 0.0208572 0.0208624 0.0182203 0.0182255 0.0208624 0.020867 0.0182255 0.0182301 0.020867 0.0208712 0.0182301 0.0182343 0.0208712 0.0208748 0.0182343 0.0182379 0.0208748 0.0208781 0.0182379 0.0182412 0.0208781 0.0208809 0.0182412 0.0182441 0.0208809 0.0208834 0.0182441 0.0182466 0.0208834 0.0208855 0.0182466 0.0182489 0.0208855 0.0208874 0.0182489 0.0182508 0.0208874 0.020889 0.0182508 0.0182525 0.020889 0.0208903 0.0182525 0.0182539 0.0208903 0.0208914 0.0182539 0.0182551 0