# vtk DataFile Version 3.0
#This file was generated by the deal.II library on 2021/2/10 at 1:26:07
ASCII
DATASET UNSTRUCTURED_GRID

POINTS 43200 double
0 -0.5 0
0.0166667 -0.5 0
0 -0.483333 0
0.0166667 -0.483333 0
0.0166667 -0.5 0
0.0333333 -0.5 0
0.0166667 -0.483333 0
0.0333333 -0.483333 0
0.0333333 -0.5 0
0.05 -0.5 0
0.0333333 -0.483333 0
0.05 -0.483333 0
0.05 -0.5 0
0.0666667 -0.5 0
0.05 -0.483333 0
0.0666667 -0.483333 0
0.0666667 -0.5 0
0.0833333 -0.5 0
0.0666667 -0.483333 0
0.0833333 -0.483333 0
0.0833333 -0.5 0
0.1 -0.5 0
0.0833333 -0.483333 0
0.1 -0.483333 0
0.1 -0.5 0
0.116667 -0.5 0
0.1 -0.483333 0
0.116667 -0.483333 0
0.116667 -0.5 0
0.133333 -0.5 0
0.116667 -0.483333 0
0.133333 -0.483333 0
0.133333 -0.5 0
0.15 -0.5 0
0.133333 -0.483333 0
0.15 -0.483333 0
0.15 -0.5 0
0.166667 -0.5 0
0.15 -0.483333 0
0.166667 -0.483333 0
0.166667 -0.5 0
0.183333 -0.5 0
0.166667 -0.483333 0
0.183333 -0.483333 0
0.183333 -0.5 0
0.2 -0.5 0
0.183333 -0.483333 0
0.2 -0.483333 0
0.2 -0.5 0
0.216667 -0.5 0
0.2 -0.483333 0
0.216667 -0.483333 0
0.216667 -0.5 0
0.233333 -0.5 0
0.216667 -0.483333 0
0.233333 -0.483333 0
0.233333 -0.5 0
0.25 -0.5 0
0.233333 -0.483333 0
0.25 -0.483333 0
0.25 -0.5 0
0.266667 -0.5 0
0.25 -0.483333 0
0.266667 -0.483333 0
0.266667 -0.5 0
0.283333 -0.5 0
0.266667 -0.483333 0
0.283333 -0.483333 0
0.283333 -0.5 0
0.3 -0.5 0
0.283333 -0.483333 0
0.3 -0.483333 0
0.3 -0.5 0
0.316667 -0.5 0
0.3 -0.483333 0
0.316667 -0.483333 0
0.316667 -0.5 0
0.333333 -0.5 0
0.316667 -0.483333 0
0.333333 -0.483333 0
0.333333 -0.5 0
0.35 -0.5 0
0.333333 -0.483333 0
0.35 -0.483333 0
0.35 -0.5 0
0.366667 -0.5 0
0.35 -0.483333 0
0.366667 -0.483333 0
0.366667 -0.5 0
0.383333 -0.5 0
0.366667 -0.483333 0
0.383333 -0.483333 0
0.383333 -0.5 0
0.4 -0.5 0
0.383333 -0.483333 0
0.4 -0.483333 0
0.4 -0.5 0
0.416667 -0.5 0
0.4 -0.483333 0
0.416667 -0.483333 0
0.416667 -0.5 0
0.433333 -0.5 0
0.416667 -0.483333 0
0.433333 -0.483333 0
0.433333 -0.5 0
0.45 -0.5 0
0.433333 -0.483333 0
0.45 -0.483333 0
0.45 -0.5 0
0.466667 -0.5 0
0.45 -0.483333 0
0.466667 -0.483333 0
0.466667 -0.5 0
0.483333 -0.5 0
0.466667 -0.483333 0
0.483333 -0.483333 0
0.483333 -0.5 0
0.5 -0.5 0
0.483333 -0.483333 0
0.5 -0.483333 0
0.5 -0.5 0
0.516667 -0.5 0
0.5 -0.483333 0
0.516667 -0.483333 0
0.516667 -0.5 0
0.533333 -0.5 0
0.516667 -0.483333 0
0.533333 -0.483333 0
0.533333 -0.5 0
0.55 -0.5 0
0.533333 -0.483333 0
0.55 -0.483333 0
0.55 -0.5 0
0.566667 -0.5 0
0.55 -0.483333 0
0.566667 -0.483333 0
0.566667 -0.5 0
0.583333 -0.5 0
0.566667 -0.483333 0
0.583333 -0.483333 0
0.583333 -0.5 0
0.6 -0.5 0
0.583333 -0.483333 0
0.6 -0.483333 0
0.6 -0.5 0
0.616667 -0.5 0
0.6 -0.483333 0
0.616667 -0.483333 0
0.616667 -0.5 0
0.633333 -0.5 0
0.616667 -0.483333 0
0.633333 -0.483333 0
0.633333 -0.5 0
0.65 -0.5 0
0.633333 -0.483333 0
0.65 -0.483333 0
0.65 -0.5 0
0.666667 -0.5 0
0.65 -0.483333 0
0.666667 -0.483333 0
0.666667 -0.5 0
0.683333 -0.5 0
0.666667 -0.483333 0
0.683333 -0.483333 0
0.683333 -0.5 0
0.7 -0.5 0
0.683333 -0.483333 0
0.7 -0.483333 0
0.7 -0.5 0
0.716667 -0.5 0
0.7 -0.483333 0
0.716667 -0.483333 0
0.716667 -0.5 0
0.733333 -0.5 0
0.716667 -0.483333 0
0.733333 -0.483333 0
0.733333 -0.5 0
0.75 -0.5 0
0.733333 -0.483333 0
0.75 -0.483333 0
0.75 -0.5 0
0.766667 -0.5 0
0.75 -0.483333 0
0.766667 -0.483333 0
0.766667 -0.5 0
0.783333 -0.5 0
0.766667 -0.483333 0
0.783333 -0.483333 0
0.783333 -0.5 0
0.8 -0.5 0
0.783333 -0.483333 0
0.8 -0.483333 0
0.8 -0.5 0
0.816667 -0.5 0
0.8 -0.483333 0
0.816667 -0.483333 0
0.816667 -0.5 0
0.833333 -0.5 0
0.816667 -0.483333 0
0.833333 -0.483333 0
0.833333 -0.5 0
0.85 -0.5 0
0.833333 -0.483333 0
0.85 -0.483333 0
0.85 -0.5 0
0.866667 -0.5 0
0.85 -0.483333 0
0.866667 -0.483333 0
0.866667 -0.5 0
0.883333 -0.5 0
0.866667 -0.483333 0
0.883333 -0.483333 0
0.883333 -0.5 0
0.9 -0.5 0
0.883333 -0.483333 0
0.9 -0.483333 0
0.9 -0.5 0
0.916667 -0.5 0
0.9 -0.483333 0
0.916667 -0.483333 0
0.916667 -0.5 0
0.933333 -0.5 0
0.916667 -0.483333 0
0.933333 -0.483333 0
0.933333 -0.5 0
0.95 -0.5 0
0.933333 -0.483333 0
0.95 -0.483333 0
0.95 -0.5 0
0.966667 -0.5 0
0.95 -0.483333 0
0.966667 -0.483333 0
0.966667 -0.5 0
0.983333 -0.5 0
0.966667 -0.483333 0
0.983333 -0.483333 0
0.983333 -0.5 0
1 -0.5 0
0.983333 -0.483333 0
1 -0.483333 0
1 -0.5 0
1.01667 -0.5 0
1 -0.483333 0
1.01667 -0.483333 0
1.01667 -0.5 0
1.03333 -0.5 0
1.01667 -0.483333 0
1.03333 -0.483333 0
1.03333 -0.5 0
1.05 -0.5 0
1.03333 -0.483333 0
1.05 -0.483333 0
1.05 -0.5 0
1.06667 -0.5 0
1.05 -0.483333 0
1.06667 -0.483333 0
1.06667 -0.5 0
1.08333 -0.5 0
1.06667 -0.483333 0
1.08333 -0.483333 0
1.08333 -0.5 0
1.1 -0.5 0
1.08333 -0.483333 0
1.1 -0.483333 0
1.1 -0.5 0
1.11667 -0.5 0
1.1 -0.483333 0
1.11667 -0.483333 0
1.11667 -0.5 0
1.13333 -0.5 0
1.11667 -0.483333 0
1.13333 -0.483333 0
1.13333 -0.5 0
1.15 -0.5 0
1.13333 -0.483333 0
1.15 -0.483333 0
1.15 -0.5 0
1.16667 -0.5 0
1.15 -0.483333 0
1.16667 -0.483333 0
1.16667 -0.5 0
1.18333 -0.5 0
1.16667 -0.483333 0
1.18333 -0.483333 0
1.18333 -0.5 0
1.2 -0.5 0
1.18333 -0.483333 0
1.2 -0.483333 0
1.2 -0.5 0
1.21667 -0.5 0
1.2 -0.483333 0
1.21667 -0.483333 0
1.21667 -0.5 0
1.23333 -0.5 0
1.21667 -0.483333 0
1.23333 -0.483333 0
1.23333 -0.5 0
1.25 -0.5 0
1.23333 -0.483333 0
1.25 -0.483333 0
1.25 -0.5 0
1.26667 -0.5 0
1.25 -0.483333 0
1.26667 -0.483333 0
1.26667 -0.5 0
1.28333 -0.5 0
1.26667 -0.483333 0
1.28333 -0.483333 0
1.28333 -0.5 0
1.3 -0.5 0
1.28333 -0.483333 0
1.3 -0.483333 0
1.3 -0.5 0
1.31667 -0.5 0
1.3 -0.483333 0
1.31667 -0.483333 0
1.31667 -0.5 0
1.33333 -0.5 0
1.31667 -0.483333 0
1.33333 -0.483333 0
1.33333 -0.5 0
1.35 -0.5 0
1.33333 -0.483333 0
1.35 -0.483333 0
1.35 -0.5 0
1.36667 -0.5 0
1.35 -0.483333 0
1.36667 -0.483333 0
1.36667 -0.5 0
1.38333 -0.5 0
1.36667 -0.483333 0
1.38333 -0.483333 0
1.38333 -0.5 0
1.4 -0.5 0
1.38333 -0.483333 0
1.4 -0.483333 0
1.4 -0.5 0
1.41667 -0.5 0
1.4 -0.483333 0
1.41667 -0.483333 0
1.41667 -0.5 0
1.43333 -0.5 0
1.41667 -0.483333 0
1.43333 -0.483333 0
1.43333 -0.5 0
1.45 -0.5 0
1.43333 -0.483333 0
1.45 -0.483333 0
1.45 -0.5 0
1.46667 -0.5 0
1.45 -0.483333 0
1.46667 -0.483333 0
1.46667 -0.5 0
1.48333 -0.5 0
1.46667 -0.483333 0
1.48333 -0.483333 0
1.48333 -0.5 0
1.5 -0.5 0
1.48333 -0.483333 0
1.5 -0.483333 0
1.5 -0.5 0
1.51667 -0.5 0
1.5 -0.483333 0
1.51667 -0.483333 0
1.51667 -0.5 0
1.53333 -0.5 0
1.51667 -0.483333 0
1.53333 -0.483333 0
1.53333 -0.5 0
1.55 -0.5 0
1.53333 -0.483333 0
1.55 -0.483333 0
1.55 -0.5 0
1.56667 -0.5 0
1.55 -0.483333 0
1.56667 -0.483333 0
1.56667 -0.5 0
1.58333 -0.5 0
1.56667 -0.483333 0
1.58333 -0.483333 0
1.58333 -0.5 0
1.6 -0.5 0
1.58333 -0.483333 0
1.6 -0.483333 0
1.6 -0.5 0
1.61667 -0.5 0
1.6 -0.483333 0
1.61667 -0.483333 0
1.61667 -0.5 0
1.63333 -0.5 0
1.61667 -0.483333 0
1.63333 -0.483333 0
1.63333 -0.5 0
1.65 -0.5 0
1.63333 -0.483333 0
1.65 -0.483333 0
1.65 -0.5 0
1.66667 -0.5 0
1.65 -0.483333 0
1.66667 -0.483333 0
1.66667 -0.5 0
1.68333 -0.5 0
1.66667 -0.483333 0
1.68333 -0.483333 0
1.68333 -0.5 0
1.7 -0.5 0
1.68333 -0.483333 0
1.7 -0.483333 0
1.7 -0.5 0
1.71667 -0.5 0
1.7 -0.483333 0
1.71667 -0.483333 0
1.71667 -0.5 0
1.73333 -0.5 0
1.71667 -0.483333 0
1.73333 -0.483333 0
1.73333 -0.5 0
1.75 -0.5 0
1.73333 -0.483333 0
1.75 -0.483333 0
1.75 -0.5 0
1.76667 -0.5 0
1.75 -0.483333 0
1.76667 -0.483333 0
1.76667 -0.5 0
1.78333 -0.5 0
1.76667 -0.483333 0
1.78333 -0.483333 0
1.78333 -0.5 0
1.8 -0.5 0
1.78333 -0.483333 0
1.8 -0.483333 0
1.8 -0.5 0
1.81667 -0.5 0
1.8 -0.483333 0
1.81667 -0.483333 0
1.81667 -0.5 0
1.83333 -0.5 0
1.81667 -0.483333 0
1.83333 -0.483333 0
1.83333 -0.5 0
1.85 -0.5 0
1.83333 -0.483333 0
1.85 -0.483333 0
1.85 -0.5 0
1.86667 -0.5 0
1.85 -0.483333 0
1.86667 -0.483333 0
1.86667 -0.5 0
1.88333 -0.5 0
1.86667 -0.483333 0
1.88333 -0.483333 0
1.88333 -0.5 0
1.9 -0.5 0
1.88333 -0.483333 0
1.9 -0.483333 0
1.9 -0.5 0
1.91667 -0.5 0
1.9 -0.483333 0
1.91667 -0.483333 0
1.91667 -0.5 0
1.93333 -0.5 0
1.91667 -0.483333 0
1.93333 -0.483333 0
1.93333 -0.5 0
1.95 -0.5 0
1.93333 -0.483333 0
1.95 -0.483333 0
1.95 -0.5 0
1.96667 -0.5 0
1.95 -0.483333 0
1.96667 -0.483333 0
1.96667 -0.5 0
1.98333 -0.5 0
1.96667 -0.483333 0
1.98333 -0.483333 0
1.98333 -0.5 0
2 -0.5 0
1.98333 -0.483333 0
2 -0.483333 0
2 -0.5 0
2.01667 -0.5 0
2 -0.483333 0
2.01667 -0.483333 0
2.01667 -0.5 0
2.03333 -0.5 0
2.01667 -0.483333 0
2.03333 -0.483333 0
2.03333 -0.5 0
2.05 -0.5 0
2.03333 -0.483333 0
2.05 -0.483333 0
2.05 -0.5 0
2.06667 -0.5 0
2.05 -0.483333 0
2.06667 -0.483333 0
2.06667 -0.5 0
2.08333 -0.5 0
2.06667 -0.483333 0
2.08333 -0.483333 0
2.08333 -0.5 0
2.1 -0.5 0
2.08333 -0.483333 0
2.1 -0.483333 0
2.1 -0.5 0
2.11667 -0.5 0
2.1 -0.483333 0
2.11667 -0.483333 0
2.11667 -0.5 0
2.13333 -0.5 0
2.11667 -0.483333 0
2.13333 -0.483333 0
2.13333 -0.5 0
2.15 -0.5 0
2.13333 -0.483333 0
2.15 -0.483333 0
2.15 -0.5 0
2.16667 -0.5 0
2.15 -0.483333 0
2.16667 -0.483333 0
2.16667 -0.5 0
2.18333 -0.5 0
2.16667 -0.483333 0
2.18333 -0.483333 0
2.18333 -0.5 0
2.2 -0.5 0
2.18333 -0.483333 0
2.2 -0.483333 0
2.2 -0.5 0
2.21667 -0.5 0
2.2 -0.483333 0
2.21667 -0.483333 0
2.21667 -0.5 0
2.23333 -0.5 0
2.21667 -0.483333 0
2.23333 -0.483333 0
2.23333 -0.5 0
2.25 -0.5 0
2.23333 -0.483333 0
2.25 -0.483333 0
2.25 -0.5 0
2.26667 -0.5 0
2.25 -0.483333 0
2.26667 -0.483333 0
2.26667 -0.5 0
2.28333 -0.5 0
2.26667 -0.483333 0
2.28333 -0.483333 0
2.28333 -0.5 0
2.3 -0.5 0
2.28333 -0.483333 0
2.3 -0.483333 0
2.3 -0.5 0
2.31667 -0.5 0
2.3 -0.483333 0
2.31667 -0.483333 0
2.31667 -0.5 0
2.33333 -0.5 0
2.31667 -0.483333 0
2.33333 -0.483333 0
2.33333 -0.5 0
2.35 -0.5 0
2.33333 -0.483333 0
2.35 -0.483333 0
2.35 -0.5 0
2.36667 -0.5 0
2.35 -0.483333 0
2.36667 -0.483333 0
2.36667 -0.5 0
2.38333 -0.5 0
2.36667 -0.483333 0
2.38333 -0.483333 0
2.38333 -0.5 0
2.4 -0.5 0
2.38333 -0.483333 0
2.4 -0.483333 0
2.4 -0.5 0
2.41667 -0.5 0
2.4 -0.483333 0
2.41667 -0.483333 0
2.41667 -0.5 0
2.43333 -0.5 0
2.41667 -0.483333 0
2.43333 -0.483333 0
2.43333 -0.5 0
2.45 -0.5 0
2.43333 -0.483333 0
2.45 -0.483333 0
2.45 -0.5 0
2.46667 -0.5 0
2.45 -0.483333 0
2.46667 -0.483333 0
2.46667 -0.5 0
[...]
POINT_DATA 43200
SCALARS x1_displacement double 1
LOOKUP_TABLE default
0 -0.000376955 0 -0.000161777 -0.000376955 -0.000609191 -0.000161777 -0.000344655 -0.000609191 -0.000752672 -0.000344655 -0.000484717 -0.000752672 -0.000841594 -0.000484717 -0.000584408 -0.000841594 -0.00088913 -0.000584408 -0.000649746 -0.00088913 -0.000903729 -0.000649746 -0.0006861 -0.000903729 -0.000890881 -0.0006861 -0.000697606 -0.000890881 -0.000854371 -0.000697606 -0.00068734 -0.000854371 -0.000796768 -0.00068734 -0.00065754 -0.000796768 -0.000719763 -0.00065754 -0.000609801 -0.000719763 -0.000624441 -0.000609801 -0.000545253 -0.000624441 -0.000511527 -0.000545253 -0.000464721 -0.000511527 -0.00038165 -0.000464721 -0.000368876 -0.00038165 -0.000235655 -0.000368876 -0.000258338 -0.000235655 -7.51118e-05 -0.000258338 -0.000133654 -7.51118e-05 9.65796e-05 -0.000133654 5.16166e-06 9.65796e-05 0.000271912 5.16166e-06 0.000160405 0.000271912 0.000436002 0.000160405 0.000331167 0.000436002 0.00056205 0.000331167 0.000508993 0.00056205 0.000890062 0.000508993 0.000722165 0.000890062 0.00109114 0.000722165 0.000893015 0.00109114 0.00136648 0.000893015 0.00112546 0.00136648 0.00174659 0.00112546 0.00145331 0.00174659 0.00218331 0.00145331 0.00172764 0.00218331 0.00259441 0.00172764 0.00202833 0.00259441 0.00301257 0.00202833 0.00236687 0.00301257 0.00342958 0.00236687 0.00270958 0.00342958 0.00384828 0.00270958 0.00303479 0.00384828 0.00429155 0.00303479 0.00339737 0.00429155 0.00475356 0.00339737 0.00378493 0.00475356 0.00517919 0.00378493 0.00415098 0.00517919 0.0055793 0.00415098 0.004471 0.0055793 0.00602745 0.004471 0.00481797 0.00602745 0.00658941 0.00481797 0.0052124 0.00658941 0.0072137 0.0052124 0.00565275 0.0072137 0.00769759 0.00565275 0.00608718 0.00769759 0.00797 0.00608718 0.00635799 0.00797 0.00817954 0.00635799 0.00653571 0.00817954 0.00852378 0.00653571 0.00682449 0.00852378 0.00895899 0.00682449 0.00727596 0.00895899 0.00931658 0.00727596 0.00756184 0.00931658 0.00955234 0.00756184 0.0077352 0.00955234 0.00987016 0.0077352 0.00795663 0.00987016 0.0102607 0.00795663 0.00831638 0.0102607 0.0105944 0.00831638 0.0085419 0.0105944 0.0108093 0.0085419 0.00872565 0.0108093 0.0110127 0.00872565 0.00892078 0.0110127 0.01123 0.00892078 0.00911451 0.01123 0.0114567 0.00911451 0.00929901 0.0114567 0.0116817 0.00929901 0.00946412 0.0116817 0.0120264 0.00946412 0.00965562 0.0120264 0.01215 0.00965562 0.00982363 0.01215 0.012309 0.00982363 0.00999189 0.012309 0.0124807 0.00999189 0.0101506 0.0124807 0.0126537 0.0101506 0.0102995 0.0126537 0.0128228 0.0102995 0.0104416 0.0128228 0.0129858 0.0104416 0.0105778 0.0129858 0.0131425 0.0105778 0.0107086 0.0131425 0.0132928 0.0107086 0.0108343 0.0132928 0.0134374 0.0108343 0.0109553 0.0134374 0.0135771 0.0109553 0.0110725 0.0135771 0.013713 0.0110725 0.0111865 0.013713 0.0138465 0.0111865 0.0112985 0.0138465 0.0139789 0.0112985 0.0114094 0.0139789 0.0141118 0.0114094 0.0115206 0.0141118 0.0142466 0.0115206 0.011633 0.0142466 0.0143849 0.011633 0.0117479 0.0143849 0.0145277 0.0117479 0.0118661 0.0145277 0.0146757 0.0118661 0.0119884 0.0146757 0.0148289 0.0119884 0.0121155 0.0148289 0.014986 0.0121155 0.0122484 0.014986 0.0151424 0.0122484 0.0123904 0.0151424 0.0152895 0.0123904 0.0125398 0.0152895 0.0153989 0.0125398 0.0126726 0.0153989 0.015833 0.0126726 0.0128348 0.015833 0.0159478 0.0128348 0.0129819 0.0159478 0.016101 0.0129819 0.0131556 0.016101 0.0162549 0.0131556 0.013336 0.0162549 0.0163751 0.013336 0.0135151 0.0163751 0.0166938 0.0135151 0.0137214 0.0166938 0.0169033 0.0137214 0.0138814 0.0169033 0.017235 0.0138814 0.0140926 0.017235 0.0176234 0.0140926 0.0144414 0.0176234 0.0179418 0.0144414 0.0146594 0.0179418 0.0181802 0.0146594 0.0148334 0.0181802 0.018542 0.0148334 0.0151231 0.018542 0.0189838 0.0151231 0.0155793 0.0189838 0.0193413 0.0155793 0.0158695 0.0193413 0.0195771 0.0158695 0.01605 0.0195771 0.0198753 0.01605 0.0163358 0.0198753 0.0203223 0.0163358 0.0167603 0.0203223 0.0208095 0.0167603 0.017123 0.0208095 0.0212027 0.017123 0.0174153 0.0212027 0.0215546 0.0174153 0.0177009 0.0215546 0.0219581 0.0177009 0.018024 0.0219581 0.0224293 0.018024 0.0184031 0.0224293 0.022888 0.0184031 0.0187759 0.022888 0.0232522 0.0187759 0.0190823 0.0232522 0.0235277 0.0190823 0.0193438 0.0235277 0.0237917 0.0193438 0.0195995 0.0237917 0.0241282 0.0195995 0.0198865 0.0241282 0.0245841 0.0198865 0.0202113 0.0245841 0.0251461 0.0202113 0.020545 0.0251461 0.0257359 0.020545 0.020855 0.0257359 0.0261614 0.020855 0.0213541 0.0261614 0.0262369 0.0213541 0.0215562 0.0262369 0.0263338 0.0215562 0.0217476 0.0263338 0.0264492 0.0217476 0.0219489 0.0264492 0.0271254 0.0219489 0.0224025 0.0271254 0.027814 0.0224025 0.0228562 0.027814 0.0279394 0.0228562 0.0230542 0.0279394 0.0280517 0.0230542 0.0232424 0.0280517 0.0281764 0.0232424 0.0234376 0.0281764 0.0288583 0.0234376 0.0238692 0.0288583 0.0295229 0.0238692 0.0242948 0.0295229 0.0296417 0.0242948 0.0244841 0.0296417 0.0297587 0.0244841 0.0246639 0.0297587 0.029897 0.0246639 0.024839 0.029897 0.030537 0.024839 0.0252808 0.030537 0.0306674 0.0252808 0.0254547 0.0306674 0.0307751 0.0254547 0.0256311 0.0307751 0.0308643 0.0256311 0.0258095 0.0308643 0.031339 0.0258095 0.0261548 0.031339 0.0317768 0.0261548 0.026298 0.0317768 0.0320542 0.026298 0.0265044 0.0320542 0.0321164 0.0265044 0.0266735 0.0321164 0.0322131 0.0266735 0.026857 0.0322131 0.0323115 0.026857 0.0270202 0.0323115 0.0327115 0.0270202 0.0272748 0.0327115 0.0331062 0.0272748 0.0274325 0.0331062 0.0332018 0.0274325 0.027594 0.0332018 0.0333279 0.027594 0.0277784 0.0333279 0.0334602 0.0277784 0.0279589 0.0334602 0.0336027 0.0279589 0.0281071 0.0336027 0.0342455 0.0281071 0.0284427 0.0342455 0.0343984 0.0284427 0.0285873 0.0343984 0.0345509 0.0285873 0.0287622 0.0345509 0.0347251 0.0287622 0.0289389 0.0347251 0.0349136 0.0289389 0.0291099 0.0349136 0.0351078 0.0291099 0.0292776 0.0351078 0.0353026 0.0292776 0.0294424 0.0353026 0.0354951 0.0294424 0.0296039 0.0354951 0.0356837 0.0296039 0.0297611 0.0356837 0.0358668 0.0297611 0.0299133 0.0358668 0.0360432 0.0299133 0.0300595 0.0360432 0.0362117 0.0300595 0.0301988 0.0362117 0.0363708 0.0301988 0.0303303 0.0363708 0.0365189 0.0303303 0.0304527 0.0365189 0.0366544 0.0304527 0.0305651 0.0366544 0.0367757 0.0305651 0.0306663 0.0367757 0.0368814 0.0306663 0.0307556 0.0368814 0.0369707 0.0307556 0.0308325 0.0369707 0.0370435 0.0308325 0.0308973 0.0370435 0.0371012 0.0308973 0.0309509 0.0371012 0.0371463 0.0309509 0.0309952 0.0371463 0.0371831 0.0309952 0.0310334 0.0371831 0.0372175 0.0310334 0.0310691 0.0372175 0.0372572 0.0310691 0.031107 0.0372572 0.0373116 0.031107 0.0311525 0.0373116 0.0373908 0.0311525 0.0312114 0.0373908 0.0375041 0.0312114 0.0312902 0.0375041 0.0376541 0.0312902 0.0313983 0.0376541 0.037826 0.0313983 0.0315418 0.037826 0.0379968 0.0315418 0.0317115 0.0379968 0.0385868 0.0317115 0.0319436 0.0385868 0.0390636 0.0319436 0.0321457 0.0390636 0.0396927 0.0321457 0.0323726 0.0396927 0.0399048 0.0323726 0.0325415 0.0399048 0.0401525 0.0325415 0.0326939 0.0401525 0.0404344 0.0326939 0.032819 0.0404344 0.0407255 0.032819 0.0329107 0.0407255 0.0410153 0.0329107 0.0329671 0.0410153 0.0412931 0.0329671 0.03299 0.0412931 0.0415312 0.03299 0.032969 0.0415312 0.0416883 0.032969 0.0328971 0.0416883 0.0417143 0.0328971 0.0327753 0.0417143 0.0416123 0.0327753 0.0326341 0.0416123 0.0414783 0.0326341 0.0325272 0.0414783 0.0414036 0.0325272 0.0324828 0.0414036 0.0413889 0.0324828 0.0324859 0 -0.000161777 0 -0.000108591 -0.000161777 -0.000344655 -0.000108591 -0.000218396 -0.000344655 -0.000484717 -0.000218396 -0.000326374 -0.000484717 -0.000584408 -0.000326374 -0.000415889 -0.000584408 -0.000649746 -0.000415889 -0.000484017 -0.000649746 -0.0006861 -0.000484017 -0.000531264 -0.0006861 -0.000697606 -0.000531264 -0.000559197 -0.000697606 -0.00068734 -0.000559197 -0.000569429 -0.00068734 -0.00065754 -0.000569429 -0.000563316 -0.00065754 -0.000609801 -0.000563316 -0.000541897 -0.000609801 -0.000545253 -0.000541897 -0.000505927 -0.000545253 -0.000464721 -0.000505927 -0.000455928 -0.000464721 -0.000368876 -0.000455928 -0.000392237 -0.000368876 -0.000258338 -0.000392237 -0.000314968 -0.000258338 -0.000133654 -0.000314968 -0.000223845 -0.000133654 5.16166e-06 -0.000223845 -0.000117941 5.16166e-06 0.000160405 -0.000117941 3.12845e-06 0.000160405 0.000331167 3.12845e-06 0.000135037 0.000331167 0.000508993 0.000135037 0.000277372 0.000508993 0.000722165 0.000277372 0.000438153 0.000722165 0.000893015 0.000438153 0.000610756 0.000893015 0.00112546 0.000610756 0.000794206 0.00112546 0.00145331 0.000794206 0.00100671 0.00145331 0.00172764 0.00100671 0.00120703 0.00172764 0.00202833 0.00120703 0.00140489 0.00202833 0.00236687 0.00140489 0.00170433 0.00236687 0.00270958 0.00170433 0.00199829 0.00270958 0.00303479 0.00199829 0.00218538 0.00303479 0.00339737 0.00218538 0.00244283 0.00339737 0.00378493 0.00244283 0.00286863 0.00378493 0.00415098 0.00286863 0.00313075 0.00415098 0.004471 0.00313075 0.0033158 0.004471 0.00481797 0.0033158 0.00355904 0.00481797 0.0052124 0.00355904 0.00388899 0.0052124 0.00565275 0.00388899 0.00416472 0.00565275 0.00608718 0.00416472 0.00458224 0.00608718 0.00635799 0.00458224 0.00478163 0.00635799 0.00653571 0.00478163 0.00496206 0.00653571 0.00682449 0.00496206 0.00514713 0.00682449 0.00727596 0.00514713 0.00558105 0.00727596 0.00756184 0.00558105 0.00575846 0.00756184 0.0077352 0.00575846 0.00593261 0.0077352 0.00795663 0.00593261 0.00612095 0.00795663 0.00831638 0.00612095 0.00633165 0.00831638 0.0085419 0.00633165 0.00650761 0.0085419 0.00872565 0.00650761 0.00667877 0.00872565 0.00892078 0.00667877 0.00685057 0.00892078 0.00911451 0.00685057 0.00701211 0.00911451 0.00929901 0.00701211 0.00716272 0.00929901 0.00946412 0.00716272 0.00730879 0.00946412 0.00965562 0.00730879 0.00744552 0.00965562 0.00982363 0.00744552 0.00757705 0.00982363 0.00999189 0.00757705 0.0077083 0.00999189 0.0101506 0.0077083 0.0078372 0.0101506 0.0102995 0.0078372 0.00795896 0.0102995 0.0104416 0.00795896 0.00807385 0.0104416 0.0105778 0.00807385 0.00818305 0.0105778 0.0107086 0.00818305 0.00828728 0.0107086 0.0108343 0.00828728 0.00838708 0.0108343 0.0109553 0.00838708 0.00848292 0.0109553 0.0110725 0.00848292 0.00857538 0.0110725 0.0111865 0.00857538 0.0086651 0.0111865 0.0112985 0.0086651 0.00875287 0.0112985 0.0114094 0.00875287 0.00883957 0.0114094 0.0115206 0.00883957 0.00892615 0.0115206 0.011633 0.00892615 0.00901359 0.011633 0.0117479 0.00901359 0.00910284 0.0117479 0.0118661 0.00910284 0.00919481 0.0118661 0.0119884 0.00919481 0.00929031 0.0119884 0.0121155 0.00929031 0.00939022 0.0121155 0.0122484 0.00939022 0.00949555 0.0122484 0.0123904 0.00949555 0.00960602 0.0123904 0.0125398 0.00960602 0.00971566 0.0125398 0.0126726 0.00971566 0.00982617 0.0126726 0.0128348 0.00982617 0.00993896 0.0128348 0.0129819 0.00993896 0.0100635 0.0129819 0.0131556 0.0100635 0.010199 0.0131556 0.013336 0.010199 0.0103431 0.013336 0.0135151 0.0103431 0.0104906 0.0135151 0.0137214 0.0104906 0.0106486 0.0137214 0.0138814 0.0106486 0.0108103 0.0138814 0.0140926 0.0108103 0.0109724 0.0140926 0.0144414 0.0109724 0.0111739 0.0144414 0.0146594 0.0111739 0.0113608 0.0146594 0.0148334 0.0113608 0.0115361 0.0148334 0.0151231 0.0115361 0.0117159 0.0151231 0.0155793 0.0117159 0.0121553 0.0155793 0.0158695 0.0121553 0.0123387 0.0158695 0.01605 0.0123387 0.0125141 0.01605 0.0163358 0.0125141 0.0127175 0.0163358 0.0167603 0.0127175 0.0131871 0.0167603 0.017123 0.0131871 0.0134442 0.017123 0.0174153 0.0134442 0.0136304 0.0174153 0.0177009 0.0136304 0.0138171 0.0177009 0.018024 0.0138171 0.0140572 0.018024 0.0184031 0.0140572 0.0143911 0.0184031 0.0187759 0.0143911 0.0147301 0.0187759 0.0190823 0.0147301 0.0149788 0.0190823 0.0193438 0.0149788 0.0151703 0.0193438 0.0195995 0.0151703 0.0153572 0.0195995 0.0198865 0.0153572 0.0155839 0.0198865 0.0202113 0.0155839 0.0158636 0.0202113 0.020545 0.0158636 0.0160576 0.020545 0.020855 0.0160576 0.0163028 0.020855 0.0213541 0.0163028 0.0167574 0.0213541 0.0215562 0.0167574 0.0169403 0.0215562 0.0217476 0.0169403 0.0171127 0.0217476 0.0219489 0.0171127 0.0172831 0.0219489 0.0224025 0.0172831 0.0176767 0.0224025 0.0228562 0.0176767 0.01806 0.0228562 0.0230542 0.01806 0.0182255 0.0230542 0.0232424 0.0182255 0.0183802 0.0232424 0.0234376 0.0183802 0.0185411 0.0234376 0.0238692 0.0185411 0.018894 0.0238692 0.0242948 0.018894 0.0192449 0.0242948 0.0244841 0.0192449 0.0193953 0.0244841 0.0246639 0.0193953 0.0195489 0.0246639 0.024839 0.0195489 0.0197076 0.024839 0.0252808 0.0197076 0.0201115 0.0252808 0.0254547 0.0201115 0.0202713 0.0254547 0.0256311 0.0202713 0.0204253 0.0256311 0.0258095 0.0204253 0.0205639 0.0258095 0.0261548 0.0205639 0.0208224 0.0261548 0.026298 0.0208224 0.0209643 0.026298 0.0265044 0.0209643 0.0211101 0.0265044 0.0266735 0.0211101 0.0212749 0.0266735 0.026857 0.0212749 0.0214412 0.026857 0.0270202 0.0214412 0.0215878 0.0270202 0.0272748 0.0215878 0.0217557 0.0272748 0.0274325 0.0217557 0.0219025 0.0274325 0.027594 0.0219025 0.0220552 0.027594 0.0277784 0.0220552 0.0222234 0.0277784 0.0279589 0.0222234 0.0223853 0.0279589 0.0281071 0.0223853 0.0225315 0.0281071 0.0284427 0.0225315 0.0227143 0.0284427 0.0285873 0.0227143 0.0228536 0.0285873 0.0287622 0.0228536 0.0230046 0.0287622 0.0289389 0.0230046 0.0231606 0.0289389 0.0291099 0.0231606 0.02331 0.0291099 0.0292776 0.02331 0.0234527 0.0292776 0.0294424 0.0234527 0.02359 0.0294424 0.0296039 0.02359 0.0237228 0.0296039 0.0297611 0.0237228 0.0238511 0.0297611 0.0299133 0.0238511 0.0239746 0.0299133 0.0300595 0.0239746 0.0240931 0.0300595 0.0301988 0.0240931 0.0242058 0.0301988 0.0303303 0.0242058 0.0243122 0.0303303 0.0304527 0.0243122 0.0244117 0.0304527 0.0305651 0.0244117 0.0245034 0.0305651 0.0306663 0.0245034 0.0245865 0.0306663 0.0307556 0.0245865 0.0246602 0.0307556 0.0308325 0.0246602 0.0247241 0.0308325 0.0308973 0.0247241 0.024778 0.0308973 0.0309509 0.024778 0.0248225 0.0309509 0.0309952 0.0248225 0.0248588 0.0309952 0.0310334 0.0248588 0.0248886 0.0310334 0.0310691 0.0248886 0.0249139 0.0310691 0.031107 0.0249139 0.0249371 0.031107 0.0311525 0.0249371 0.0249604 0.0311525 0.0312114 0.0249604 0.0249865 0.0312114 0.0312902 0.0249865 0.0250195 0.0312902 0.0313983 0.0250195 0.0250643 0.0313983 0.0315418 0.0250643 0.0251233 0.0315418 0.0317115 0.0251233 0.0251887 0.0317115 0.0319436 0.0251887 0.0252511 0.0319436 0.0321457 0.0252511 0.0253089 0.0321457 0.0323726 0.0253089 0.0253261 0.0323726 0.0325415 0.0253261 0.0253206 0.0325415 0.0326939 0.0253206 0.0253035 0.0326939 0.032819 0.0253035 0.0252632 0.032819 0.0329107 0.0252632 0.0251777 0.0329107 0.0329671 0.0251777 0.0250303 0.0329671 0.03299 0.0250303 0.02481 0.03299 0.032969 0.02481 0.0245238 0.032969 0.0328971 0.0245238 0.0242007 0.0328971 0.0327753 0.0242007 0.0238252 0.0327753 0.0326341 0.0238252 0.0236031 0.0326341 0.0325272 0.0236031 0.0235085 0.0325272 0.0324828 0.0235085 0.0235089 0.0324828 0.0324859 0.0235089 0.0235588 0 -0.000108591 0 -8.23358e-05 -0.000108591 -0.000218396 -8.23358e-05 -0.000162001 -0.000218396 -0.000326374 -0.000162001 -0.000240938 -0.000326374 -0.000415889 -0.000240938 -0.000314919 -0.000415889 -0.000484017 -0.000314919 -0.000378654 -0.000484017 -0.000531264 -0.000378654 -0.000430153 -0.000531264 -0.000559197 -0.000430153 -0.000468949 -0.000559197 -0.000569429 -0.000468949 -0.000495226 -0.000569429 -0.000563316 -0.000495226 -0.000509324 -0.000563316 -0.000541897 -0.000509324 -0.000511531 -0.000541897 -0.000505927 -0.000511531 -0.000502019 -0.000505927 -0.000455928 -0.000502019 -0.000480841 -0.000455928 -0.000392237 -0.000480841 -0.000447938 -0.000392237 -0.000314968 -0.000447938 -0.000403117 -0.000314968 -0.000223845 -0.000403117 -0.000346064 -0.000223845 -0.000117941 -0.000346064 -0.000276698 -0.000117941 3.12845e-06 -0.000276698 -0.000196271 3.12845e-06 0.000135037 -0.000196271 -0.00010539 0.000135037 0.000277372 -0.00010539 -2.42561e-06 0.000277372 0.000438153 -2.42561e-06 0.00011272 0.000438153 0.000610756 0.00011272 0.000236186 0.000610756 0.000794206 0.000236186 0.000368952 0.000794206 0.00100671 0.000368952 0.000516132 0.00100671 0.00120703 0.000516132 0.000676535 0.00120703 0.00140489 0.000676535 0.000837403 0.00140489 0.00170433 0.000837403 0.00102012 0.00170433 0.00199829 0.00102012 0.00121367 0.00199829 0.00218538 0.00121367 0.00139134 0.00218538 0.00244283 0.00139134 0.00158748 0.00244283 0.00286863 0.00158748 0.00182482 0.00286863 0.00313075 0.00182482 0.00202984 0.00313075 0.0033158 0.00202984 0.00222081 0.0033158 0.00355904 0.00222081 0.00242475 0.00355904 0.00388899 0.00242475 0.00264255 0.00388899 0.00416472 0.00264255 0.00283968 0.00416472 0.00458224 0.00283968 0.00306834 0.00458224 0.00478163 0.00306834 0.00324651 0.00478163 0.00496206 0.00324651 0.00341952 0.00496206 0.00514713 0.00341952 0.0035911 0.00514713 0.00558105 0.0035911 0.00380946 0.00558105 0.00575846 0.00380946 0.00396127 0.00575846 0.00593261 0.00396127 0.00411114 0.00593261 0.00612095 0.00411114 0.00426259 0.00612095 0.00633165 0.00426259 0.00440974 0.00633165 0.00650761 0.00440974 0.00454551 0.00650761 0.00667877 0.00454551 0.00467382 0.00667877 0.00685057 0.00467382 0.00479964 0.00685057 0.00701211 0.00479964 0.00492103 0.00701211 0.00716272 0.00492103 0.00503707 0.00716272 0.00730879 0.00503707 0.00514833 0.00730879 0.00744552 0.00514833 0.00525454 0.00744552 0.00757705 0.00525454 0.0053539 0.00757705 0.0077083 0.0053539 0.00544907 0.0077083 0.0078372 0.00544907 0.00554224 0.0078372 0.00795896 0.00554224 0.00563245 0.00795896 0.00807385 0.00563245 0.00571811 0.00807385 0.00818305 0.00571811 0.00579914 0.00818305 0.00828728 0.00579914 0.00587592 0.00828728 0.00838708 0.00587592 0.0059488 0.00838708 0.00848292 0.0059488 0.00601817 0.00848292 0.00857538 0.00601817 0.00608442 0.00857538 0.0086651 0.00608442 0.00614805 0.0086651 0.00875287 0.00614805 0.00620969 0.00875287 0.00883957 0.00620969 0.00627005 0.00883957 0.00892615 0.00627005 0.00632999 0.00892615 0.00901359 0.00632999 0.00639041 0.00901359 0.00910284 0.00639041 0.00645224 0.00910284 0.00919481 0.00645224 0.00651635 0.00919481 0.00929031 0.00651635 0.00658346 0.00929031 0.00939022 0.00658346 0.00665406 0.00939022 0.00949555 0.00665406 0.0067279 0.00949555 0.00960602 0.0067279 0.00680306 0.00960602 0.00971566 0.00680306 0.00687958 0.00971566 0.00982617 0.00687958 0.00696093 0.00982617 0.00993896 0.00696093 0.00704796 0.00993896 0.0100635 0.00704796 0.00713598 0.0100635 0.010199 0.00713598 0.00722737 0.010199 0.0103431 0.00722737 0.00732535 0.0103431 0.0104906 0.00732535 0.00743182 0.0104906 0.0106486 0.00743182 0.00754604 0.0106486 0.0108103 0.00754604 0.00766479 0.0108103 0.0109724 0.00766479 0.00779225 0.0109724 0.0111739 0.00779225 0.00793344 0.0111739 0.0113608 0.00793344 0.00808323 0.0113608 0.0115361 0.00808323 0.00823437 0.0115361 0.0117159 0.00823437 0.00838983 0.0117159 0.0121553 0.00838983 0.00861442 0.0121553 0.0123387 0.00861442 0.00878764 0.0123387 0.0125141 0.00878764 0.00895847 0.0125141 0.0127175 0.00895847 0.00912643 0.0127175 0.0131871 0.00912643 0.00940865 0.0131871 0.0134442 0.00940865 0.00959582 0.0134442 0.0136304 0.00959582 0.00978311 0.0136304 0.0138171 0.00978311 0.00997373 0.0138171 0.0140572 0.00997373 0.0101703 0.0140572 0.0143911 0.0101703 0.0103779 0.0143911 0.0147301 0.0103779 0.0105846 0.0147301 0.0149788 0.0105846 0.0107803 0.0149788 0.0151703 0.0107803 0.0109723 0.0151703 0.0153572 0.0109723 0.0111643 0.0153572 0.0155839 0.0111643 0.011358 0.0155839 0.0158636 0.011358 0.011556 0.0158636 0.0160576 0.011556 0.0117277 0.0160576 0.0163028 0.0117277 0.0119084 0.0163028 0.0167574 0.0119084 0.0121819 0.0167574 0.0169403 0.0121819 0.0123478 0.0169403 0.0171127 0.0123478 0.0125083 0.0171127 0.0172831 0.0125083 0.0126631 0.0172831 0.0176767 0.0126631 0.012916 0.0176767 0.01806 0.012916 0.0132532 0.01806 0.0182255 0.0132532 0.0133912 0.0182255 0.0183802 0.0133912 0.0135275 0.0183802 0.0185411 0.0135275 0.0136589 0.0185411 0.018894 0.0136589 0.01