# vtk DataFile Version 3.0
#This file was generated by the deal.II library on 2021/2/10 at 1:39:18
ASCII
DATASET UNSTRUCTURED_GRID

POINTS 43200 double
0 -0.5 0
0.0166667 -0.5 0
0 -0.483333 0
0.0166667 -0.483333 0
0.0166667 -0.5 0
0.0333333 -0.5 0
0.0166667 -0.483333 0
0.0333333 -0.483333 0
0.0333333 -0.5 0
0.05 -0.5 0
0.0333333 -0.483333 0
0.05 -0.483333 0
0.05 -0.5 0
0.0666667 -0.5 0
0.05 -0.483333 0
0.0666667 -0.483333 0
0.0666667 -0.5 0
0.0833333 -0.5 0
0.0666667 -0.483333 0
0.0833333 -0.483333 0
0.0833333 -0.5 0
0.1 -0.5 0
0.0833333 -0.483333 0
0.1 -0.483333 0
0.1 -0.5 0
0.116667 -0.5 0
0.1 -0.483333 0
0.116667 -0.483333 0
0.116667 -0.5 0
0.133333 -0.5 0
0.116667 -0.483333 0
0.133333 -0.483333 0
0.133333 -0.5 0
0.15 -0.5 0
0.133333 -0.483333 0
0.15 -0.483333 0
0.15 -0.5 0
0.166667 -0.5 0
0.15 -0.483333 0
0.166667 -0.483333 0
0.166667 -0.5 0
0.183333 -0.5 0
0.166667 -0.483333 0
0.183333 -0.483333 0
0.183333 -0.5 0
0.2 -0.5 0
0.183333 -0.483333 0
0.2 -0.483333 0
0.2 -0.5 0
0.216667 -0.5 0
0.2 -0.483333 0
0.216667 -0.483333 0
0.216667 -0.5 0
0.233333 -0.5 0
0.216667 -0.483333 0
0.233333 -0.483333 0
0.233333 -0.5 0
0.25 -0.5 0
0.233333 -0.483333 0
0.25 -0.483333 0
0.25 -0.5 0
0.266667 -0.5 0
0.25 -0.483333 0
0.266667 -0.483333 0
0.266667 -0.5 0
0.283333 -0.5 0
0.266667 -0.483333 0
0.283333 -0.483333 0
0.283333 -0.5 0
0.3 -0.5 0
0.283333 -0.483333 0
0.3 -0.483333 0
0.3 -0.5 0
0.316667 -0.5 0
0.3 -0.483333 0
0.316667 -0.483333 0
0.316667 -0.5 0
0.333333 -0.5 0
0.316667 -0.483333 0
0.333333 -0.483333 0
0.333333 -0.5 0
0.35 -0.5 0
0.333333 -0.483333 0
0.35 -0.483333 0
0.35 -0.5 0
0.366667 -0.5 0
0.35 -0.483333 0
0.366667 -0.483333 0
0.366667 -0.5 0
0.383333 -0.5 0
0.366667 -0.483333 0
0.383333 -0.483333 0
0.383333 -0.5 0
0.4 -0.5 0
0.383333 -0.483333 0
0.4 -0.483333 0
0.4 -0.5 0
0.416667 -0.5 0
0.4 -0.483333 0
0.416667 -0.483333 0
0.416667 -0.5 0
0.433333 -0.5 0
0.416667 -0.483333 0
0.433333 -0.483333 0
0.433333 -0.5 0
0.45 -0.5 0
0.433333 -0.483333 0
0.45 -0.483333 0
0.45 -0.5 0
0.466667 -0.5 0
0.45 -0.483333 0
0.466667 -0.483333 0
0.466667 -0.5 0
0.483333 -0.5 0
0.466667 -0.483333 0
0.483333 -0.483333 0
0.483333 -0.5 0
0.5 -0.5 0
0.483333 -0.483333 0
0.5 -0.483333 0
0.5 -0.5 0
0.516667 -0.5 0
0.5 -0.483333 0
0.516667 -0.483333 0
0.516667 -0.5 0
0.533333 -0.5 0
0.516667 -0.483333 0
0.533333 -0.483333 0
0.533333 -0.5 0
0.55 -0.5 0
0.533333 -0.483333 0
0.55 -0.483333 0
0.55 -0.5 0
0.566667 -0.5 0
0.55 -0.483333 0
0.566667 -0.483333 0
0.566667 -0.5 0
0.583333 -0.5 0
0.566667 -0.483333 0
0.583333 -0.483333 0
0.583333 -0.5 0
0.6 -0.5 0
0.583333 -0.483333 0
0.6 -0.483333 0
0.6 -0.5 0
0.616667 -0.5 0
0.6 -0.483333 0
0.616667 -0.483333 0
0.616667 -0.5 0
0.633333 -0.5 0
0.616667 -0.483333 0
0.633333 -0.483333 0
0.633333 -0.5 0
0.65 -0.5 0
0.633333 -0.483333 0
0.65 -0.483333 0
0.65 -0.5 0
0.666667 -0.5 0
0.65 -0.483333 0
0.666667 -0.483333 0
0.666667 -0.5 0
0.683333 -0.5 0
0.666667 -0.483333 0
0.683333 -0.483333 0
0.683333 -0.5 0
0.7 -0.5 0
0.683333 -0.483333 0
0.7 -0.483333 0
0.7 -0.5 0
0.716667 -0.5 0
0.7 -0.483333 0
0.716667 -0.483333 0
0.716667 -0.5 0
0.733333 -0.5 0
0.716667 -0.483333 0
0.733333 -0.483333 0
0.733333 -0.5 0
0.75 -0.5 0
0.733333 -0.483333 0
0.75 -0.483333 0
0.75 -0.5 0
0.766667 -0.5 0
0.75 -0.483333 0
0.766667 -0.483333 0
0.766667 -0.5 0
0.783333 -0.5 0
0.766667 -0.483333 0
0.783333 -0.483333 0
0.783333 -0.5 0
0.8 -0.5 0
0.783333 -0.483333 0
0.8 -0.483333 0
0.8 -0.5 0
0.816667 -0.5 0
0.8 -0.483333 0
0.816667 -0.483333 0
0.816667 -0.5 0
0.833333 -0.5 0
0.816667 -0.483333 0
0.833333 -0.483333 0
0.833333 -0.5 0
0.85 -0.5 0
0.833333 -0.483333 0
0.85 -0.483333 0
0.85 -0.5 0
0.866667 -0.5 0
0.85 -0.483333 0
0.866667 -0.483333 0
0.866667 -0.5 0
0.883333 -0.5 0
0.866667 -0.483333 0
0.883333 -0.483333 0
0.883333 -0.5 0
0.9 -0.5 0
0.883333 -0.483333 0
0.9 -0.483333 0
0.9 -0.5 0
0.916667 -0.5 0
0.9 -0.483333 0
0.916667 -0.483333 0
0.916667 -0.5 0
0.933333 -0.5 0
0.916667 -0.483333 0
0.933333 -0.483333 0
0.933333 -0.5 0
0.95 -0.5 0
0.933333 -0.483333 0
0.95 -0.483333 0
0.95 -0.5 0
0.966667 -0.5 0
0.95 -0.483333 0
0.966667 -0.483333 0
0.966667 -0.5 0
0.983333 -0.5 0
0.966667 -0.483333 0
0.983333 -0.483333 0
0.983333 -0.5 0
1 -0.5 0
0.983333 -0.483333 0
1 -0.483333 0
1 -0.5 0
1.01667 -0.5 0
1 -0.483333 0
1.01667 -0.483333 0
1.01667 -0.5 0
1.03333 -0.5 0
1.01667 -0.483333 0
1.03333 -0.483333 0
1.03333 -0.5 0
1.05 -0.5 0
1.03333 -0.483333 0
1.05 -0.483333 0
1.05 -0.5 0
1.06667 -0.5 0
1.05 -0.483333 0
1.06667 -0.483333 0
1.06667 -0.5 0
1.08333 -0.5 0
1.06667 -0.483333 0
1.08333 -0.483333 0
1.08333 -0.5 0
1.1 -0.5 0
1.08333 -0.483333 0
1.1 -0.483333 0
1.1 -0.5 0
1.11667 -0.5 0
1.1 -0.483333 0
1.11667 -0.483333 0
1.11667 -0.5 0
1.13333 -0.5 0
1.11667 -0.483333 0
1.13333 -0.483333 0
1.13333 -0.5 0
1.15 -0.5 0
1.13333 -0.483333 0
1.15 -0.483333 0
1.15 -0.5 0
1.16667 -0.5 0
1.15 -0.483333 0
1.16667 -0.483333 0
1.16667 -0.5 0
1.18333 -0.5 0
1.16667 -0.483333 0
1.18333 -0.483333 0
1.18333 -0.5 0
1.2 -0.5 0
1.18333 -0.483333 0
1.2 -0.483333 0
1.2 -0.5 0
1.21667 -0.5 0
1.2 -0.483333 0
1.21667 -0.483333 0
1.21667 -0.5 0
1.23333 -0.5 0
1.21667 -0.483333 0
1.23333 -0.483333 0
1.23333 -0.5 0
1.25 -0.5 0
1.23333 -0.483333 0
1.25 -0.483333 0
1.25 -0.5 0
1.26667 -0.5 0
1.25 -0.483333 0
1.26667 -0.483333 0
1.26667 -0.5 0
1.28333 -0.5 0
1.26667 -0.483333 0
1.28333 -0.483333 0
1.28333 -0.5 0
1.3 -0.5 0
1.28333 -0.483333 0
1.3 -0.483333 0
1.3 -0.5 0
1.31667 -0.5 0
1.3 -0.483333 0
1.31667 -0.483333 0
1.31667 -0.5 0
1.33333 -0.5 0
1.31667 -0.483333 0
1.33333 -0.483333 0
1.33333 -0.5 0
1.35 -0.5 0
1.33333 -0.483333 0
1.35 -0.483333 0
1.35 -0.5 0
1.36667 -0.5 0
1.35 -0.483333 0
1.36667 -0.483333 0
1.36667 -0.5 0
1.38333 -0.5 0
1.36667 -0.483333 0
1.38333 -0.483333 0
1.38333 -0.5 0
1.4 -0.5 0
1.38333 -0.483333 0
1.4 -0.483333 0
1.4 -0.5 0
1.41667 -0.5 0
1.4 -0.483333 0
1.41667 -0.483333 0
1.41667 -0.5 0
1.43333 -0.5 0
1.41667 -0.483333 0
1.43333 -0.483333 0
1.43333 -0.5 0
1.45 -0.5 0
1.43333 -0.483333 0
1.45 -0.483333 0
1.45 -0.5 0
1.46667 -0.5 0
1.45 -0.483333 0
1.46667 -0.483333 0
1.46667 -0.5 0
1.48333 -0.5 0
1.46667 -0.483333 0
1.48333 -0.483333 0
1.48333 -0.5 0
1.5 -0.5 0
1.48333 -0.483333 0
1.5 -0.483333 0
1.5 -0.5 0
1.51667 -0.5 0
1.5 -0.483333 0
1.51667 -0.483333 0
1.51667 -0.5 0
1.53333 -0.5 0
1.51667 -0.483333 0
1.53333 -0.483333 0
1.53333 -0.5 0
1.55 -0.5 0
1.53333 -0.483333 0
1.55 -0.483333 0
1.55 -0.5 0
1.56667 -0.5 0
1.55 -0.483333 0
1.56667 -0.483333 0
1.56667 -0.5 0
1.58333 -0.5 0
1.56667 -0.483333 0
1.58333 -0.483333 0
1.58333 -0.5 0
1.6 -0.5 0
1.58333 -0.483333 0
1.6 -0.483333 0
1.6 -0.5 0
1.61667 -0.5 0
1.6 -0.483333 0
1.61667 -0.483333 0
1.61667 -0.5 0
1.63333 -0.5 0
1.61667 -0.483333 0
1.63333 -0.483333 0
1.63333 -0.5 0
1.65 -0.5 0
1.63333 -0.483333 0
1.65 -0.483333 0
1.65 -0.5 0
1.66667 -0.5 0
1.65 -0.483333 0
1.66667 -0.483333 0
1.66667 -0.5 0
1.68333 -0.5 0
1.66667 -0.483333 0
1.68333 -0.483333 0
1.68333 -0.5 0
1.7 -0.5 0
1.68333 -0.483333 0
1.7 -0.483333 0
1.7 -0.5 0
1.71667 -0.5 0
1.7 -0.483333 0
1.71667 -0.483333 0
1.71667 -0.5 0
1.73333 -0.5 0
1.71667 -0.483333 0
1.73333 -0.483333 0
1.73333 -0.5 0
1.75 -0.5 0
1.73333 -0.483333 0
1.75 -0.483333 0
1.75 -0.5 0
1.76667 -0.5 0
1.75 -0.483333 0
1.76667 -0.483333 0
1.76667 -0.5 0
1.78333 -0.5 0
1.76667 -0.483333 0
1.78333 -0.483333 0
1.78333 -0.5 0
1.8 -0.5 0
1.78333 -0.483333 0
1.8 -0.483333 0
1.8 -0.5 0
1.81667 -0.5 0
1.8 -0.483333 0
1.81667 -0.483333 0
1.81667 -0.5 0
1.83333 -0.5 0
1.81667 -0.483333 0
1.83333 -0.483333 0
1.83333 -0.5 0
1.85 -0.5 0
1.83333 -0.483333 0
1.85 -0.483333 0
1.85 -0.5 0
1.86667 -0.5 0
1.85 -0.483333 0
1.86667 -0.483333 0
1.86667 -0.5 0
1.88333 -0.5 0
1.86667 -0.483333 0
1.88333 -0.483333 0
1.88333 -0.5 0
1.9 -0.5 0
1.88333 -0.483333 0
1.9 -0.483333 0
1.9 -0.5 0
1.91667 -0.5 0
1.9 -0.483333 0
1.91667 -0.483333 0
1.91667 -0.5 0
1.93333 -0.5 0
1.91667 -0.483333 0
1.93333 -0.483333 0
1.93333 -0.5 0
1.95 -0.5 0
1.93333 -0.483333 0
1.95 -0.483333 0
1.95 -0.5 0
1.96667 -0.5 0
1.95 -0.483333 0
1.96667 -0.483333 0
1.96667 -0.5 0
1.98333 -0.5 0
1.96667 -0.483333 0
1.98333 -0.483333 0
1.98333 -0.5 0
2 -0.5 0
1.98333 -0.483333 0
2 -0.483333 0
2 -0.5 0
2.01667 -0.5 0
2 -0.483333 0
2.01667 -0.483333 0
2.01667 -0.5 0
2.03333 -0.5 0
2.01667 -0.483333 0
2.03333 -0.483333 0
2.03333 -0.5 0
2.05 -0.5 0
2.03333 -0.483333 0
2.05 -0.483333 0
2.05 -0.5 0
2.06667 -0.5 0
2.05 -0.483333 0
2.06667 -0.483333 0
2.06667 -0.5 0
2.08333 -0.5 0
2.06667 -0.483333 0
2.08333 -0.483333 0
2.08333 -0.5 0
2.1 -0.5 0
2.08333 -0.483333 0
2.1 -0.483333 0
2.1 -0.5 0
2.11667 -0.5 0
2.1 -0.483333 0
2.11667 -0.483333 0
2.11667 -0.5 0
2.13333 -0.5 0
2.11667 -0.483333 0
2.13333 -0.483333 0
2.13333 -0.5 0
2.15 -0.5 0
2.13333 -0.483333 0
2.15 -0.483333 0
2.15 -0.5 0
2.16667 -0.5 0
2.15 -0.483333 0
2.16667 -0.483333 0
2.16667 -0.5 0
2.18333 -0.5 0
2.16667 -0.483333 0
2.18333 -0.483333 0
2.18333 -0.5 0
2.2 -0.5 0
2.18333 -0.483333 0
2.2 -0.483333 0
2.2 -0.5 0
2.21667 -0.5 0
2.2 -0.483333 0
2.21667 -0.483333 0
2.21667 -0.5 0
2.23333 -0.5 0
2.21667 -0.483333 0
2.23333 -0.483333 0
2.23333 -0.5 0
2.25 -0.5 0
2.23333 -0.483333 0
2.25 -0.483333 0
2.25 -0.5 0
2.26667 -0.5 0
2.25 -0.483333 0
2.26667 -0.483333 0
2.26667 -0.5 0
2.28333 -0.5 0
2.26667 -0.483333 0
2.28333 -0.483333 0
2.28333 -0.5 0
2.3 -0.5 0
2.28333 -0.483333 0
2.3 -0.483333 0
2.3 -0.5 0
2.31667 -0.5 0
2.3 -0.483333 0
2.31667 -0.483333 0
2.31667 -0.5 0
2.33333 -0.5 0
2.31667 -0.483333 0
2.33333 -0.483333 0
2.33333 -0.5 0
2.35 -0.5 0
2.33333 -0.483333 0
2.35 -0.483333 0
2.35 -0.5 0
2.36667 -0.5 0
2.35 -0.483333 0
2.36667 -0.483333 0
2.36667 -0.5 0
2.38333 -0.5 0
2.36667 -0.483333 0
2.38333 -0.483333 0
2.38333 -0.5 0
2.4 -0.5 0
2.38333 -0.483333 0
2.4 -0.483333 0
2.4 -0.5 0
2.41667 -0.5 0
2.4 -0.483333 0
2.41667 -0.483333 0
2.41667 -0.5 0
2.43333 -0.5 0
2.41667 -0.483333 0
2.43333 -0.483333 0
2.43333 -0.5 0
2.45 -0.5 0
2.43333 -0.483333 0
2.45 -0.483333 0
2.45 -0.5 0
2.46667 -0.5 0
2.45 -0.483333 0
2.46667 -0.483333 0
2.46667 -0.5 0
[...]
POINT_DATA 43200
SCALARS x1_displacement double 1
LOOKUP_TABLE default
0 0.000421268 0 0.00033896 0.000421268 0.000802964 0.00033896 0.000762028 0.000802964 0.00120341 0.000762028 0.00119791 0.00120341 0.00164331 0.00119791 0.00165166 0.00164331 0.0021224 0.00165166 0.00212771 0.0021224 0.00263807 0.00212771 0.00262774 0.00263807 0.00318683 0.00262774 0.00315159 0.00318683 0.00376527 0.00315159 0.00369816 0.00376527 0.00437019 0.00369816 0.00426588 0.00437019 0.00499863 0.00426588 0.00485302 0.00499863 0.00564789 0.00485302 0.00545777 0.00564789 0.00631551 0.00545777 0.00607837 0.00631551 0.00699925 0.00607837 0.00671313 0.00699925 0.00769704 0.00671313 0.00736041 0.00769704 0.00840701 0.00736041 0.00801868 0.00840701 0.00912743 0.00801868 0.00868653 0.00912743 0.00985673 0.00868653 0.0093626 0.00985673 0.0105935 0.0093626 0.0100456 0.0105935 0.0113363 0.0100456 0.0107345 0.0113363 0.0120841 0.0107345 0.0114281 0.0120841 0.0128356 0.0114281 0.0121255 0.0128356 0.01359 0.0121255 0.0128258 0.01359 0.0143462 0.0128258 0.0135281 0.0143462 0.0151035 0.0135281 0.0142317 0.0151035 0.0158611 0.0142317 0.0149358 0.0158611 0.0166184 0.0149358 0.01564 0.0166184 0.0173747 0.01564 0.0163435 0.0173747 0.0181296 0.0163435 0.017046 0.0181296 0.0188825 0.017046 0.0177469 0.0188825 0.019633 0.0177469 0.0184459 0.019633 0.0203808 0.0184459 0.0191426 0.0203808 0.0211256 0.0191426 0.0198367 0.0211256 0.0218671 0.0198367 0.020528 0.0218671 0.0226051 0.020528 0.0212162 0.0226051 0.0233394 0.0212162 0.0219012 0.0233394 0.0240699 0.0219012 0.0225828 0.0240699 0.0247964 0.0225828 0.0232609 0.0247964 0.0255189 0.0232609 0.0239353 0.0255189 0.0262372 0.0239353 0.024606 0.0262372 0.0269515 0.024606 0.025273 0.0269515 0.0276615 0.025273 0.0259362 0.0276615 0.0283675 0.0259362 0.0265956 0.0283675 0.0290692 0.0265956 0.0272512 0.0290692 0.0297669 0.0272512 0.0279031 0.0297669 0.0304605 0.0279031 0.0285511 0.0304605 0.0311501 0.0285511 0.0291955 0.0311501 0.0318357 0.0291955 0.0298361 0.0318357 0.0325174 0.0298361 0.0304732 0.0325174 0.0331952 0.0304732 0.0311066 0.0331952 0.0338693 0.0311066 0.0317365 0.0338693 0.0345397 0.0317365 0.0323629 0.0345397 0.0352064 0.0323629 0.0329858 0.0352064 0.0358695 0.0329858 0.0336054 0.0358695 0.0365292 0.0336054 0.0342217 0.0365292 0.0371854 0.0342217 0.0348347 0.0371854 0.0378382 0.0348347 0.0354444 0.0378382 0.0384876 0.0354444 0.036051 0.0384876 0.0391338 0.036051 0.0366545 0.0391338 0.0397768 0.0366545 0.0372548 0.0397768 0.0404165 0.0372548 0.0378521 0.0404165 0.0410532 0.0378521 0.0384464 0.0410532 0.0416867 0.0384464 0.0390377 0.0416867 0.0423171 0.0390377 0.039626 0.0423171 0.0429445 0.039626 0.0402114 0.0429445 0.0435688 0.0402114 0.0407939 0.0435688 0.0441901 0.0407939 0.0413734 0.0441901 0.0448084 0.0413734 0.0419501 0.0448084 0.0454237 0.0419501 0.0425238 0.0454237 0.046036 0.0425238 0.0430947 0.046036 0.0466453 0.0430947 0.0436626 0.0466453 0.0472517 0.0436626 0.0442277 0.0472517 0.047855 0.0442277 0.04479 0.047855 0.0484555 0.04479 0.0453493 0.0484555 0.0490529 0.0453493 0.0459058 0.0490529 0.0496473 0.0459058 0.0464594 0.0496473 0.0502388 0.0464594 0.0470101 0.0502388 0.0508273 0.0470101 0.0475579 0.0508273 0.0514128 0.0475579 0.0481029 0.0514128 0.0519954 0.0481029 0.048645 0.0519954 0.0525749 0.048645 0.0491842 0.0525749 0.0531515 0.0491842 0.0497205 0.0531515 0.0537252 0.0497205 0.0502539 0.0537252 0.0542958 0.0502539 0.0507844 0.0542958 0.0548635 0.0507844 0.0513121 0.0548635 0.0554283 0.0513121 0.0518369 0.0554283 0.0559901 0.0518369 0.0523589 0.0559901 0.056549 0.0523589 0.0528779 0.056549 0.0571049 0.0528779 0.0533942 0.0571049 0.057658 0.0533942 0.0539075 0.057658 0.0582081 0.0539075 0.0544181 0.0582081 0.0587553 0.0544181 0.0549258 0.0587553 0.0592997 0.0549258 0.0554307 0.0592997 0.0598411 0.0554307 0.0559327 0.0598411 0.0603797 0.0559327 0.056432 0.0603797 0.0609155 0.056432 0.0569284 0.0609155 0.0614484 0.0569284 0.0574221 0.0614484 0.0619784 0.0574221 0.0579129 0.0619784 0.0625056 0.0579129 0.058401 0.0625056 0.0630299 0.058401 0.0588862 0.0630299 0.0635515 0.0588862 0.0593687 0.0635515 0.0640702 0.0593687 0.0598485 0.0640702 0.0645861 0.0598485 0.0603254 0.0645861 0.0650992 0.0603254 0.0607996 0.0650992 0.0656095 0.0607996 0.0612711 0.0656095 0.066117 0.0612711 0.0617399 0.066117 0.0666218 0.0617399 0.0622059 0.0666218 0.0671239 0.0622059 0.0626693 0.0671239 0.0676233 0.0626693 0.0631301 0.0676233 0.06812 0.0631301 0.0635882 0.06812 0.0686141 0.0635882 0.0640438 0.0686141 0.0691058 0.0640438 0.064497 0.0691058 0.0695949 0.064497 0.0649477 0.0695949 0.0700818 0.0649477 0.0653961 0.0700818 0.0705663 0.0653961 0.0658423 0.0705663 0.0710488 0.0658423 0.0662864 0.0710488 0.0715293 0.0662864 0.0667285 0.0715293 0.072008 0.0667285 0.0671687 0.072008 0.0724851 0.0671687 0.0676073 0.0724851 0.0729608 0.0676073 0.0680445 0.0729608 0.0734353 0.0680445 0.0684803 0.0734353 0.0739089 0.0684803 0.0689151 0.0739089 0.0743818 0.0689151 0.0693491 0.0743818 0.0748544 0.0693491 0.0697825 0.0748544 0.0753269 0.0697825 0.0702155 0.0753269 0.0757997 0.0702155 0.0706486 0.0757997 0.076273 0.0706486 0.0710818 0.076273 0.0767473 0.0710818 0.0715156 0.0767473 0.0772229 0.0715156 0.0719502 0.0772229 0.0777001 0.0719502 0.0723859 0.0777001 0.0781792 0.0723859 0.0728229 0.0781792 0.0786605 0.0728229 0.0732615 0.0786605 0.0791444 0.0732615 0.0737019 0.0791444 0.0796311 0.0737019 0.0741443 0.0796311 0.0801208 0.0741443 0.0745889 0.0801208 0.0806137 0.0745889 0.0750359 0.0806137 0.0811098 0.0750359 0.0754851 0.0811098 0.0816093 0.0754851 0.0759368 0.0816093 0.082112 0.0759368 0.0763907 0.082112 0.082618 0.0763907 0.0768469 0.082618 0.0831269 0.0768469 0.077305 0.0831269 0.0836385 0.077305 0.0777647 0.0836385 0.0841525 0.0777647 0.0782258 0.0841525 0.0846681 0.0782258 0.0786877 0.0846681 0.0851849 0.0786877 0.0791498 0.0851849 0.0857022 0.0791498 0.0796116 0.0857022 0.0862189 0.0796116 0.0800721 0.0862189 0.0867343 0.0800721 0.0805306 0.0867343 0.0872472 0.0805306 0.0809862 0.0872472 0.0877565 0.0809862 0.0814378 0.0877565 0.088261 0.0814378 0.0818844 0.088261 0.0887592 0.0818844 0.0823247 0.0887592 0.08925 0.0823247 0.0827578 0.08925 0.0897318 0.0827578 0.0831823 0.0897318 0.0902033 0.0831823 0.0835971 0.0902033 0.0906632 0.0835971 0.0840009 0.0906632 0.09111 0.0840009 0.0843927 0.09111 0.0915424 0.0843927 0.0847713 0.0915424 0.0919591 0.0847713 0.0851357 0.0919591 0.0923591 0.0851357 0.0854848 0.0923591 0.092741 0.0854848 0.0858177 0.092741 0.0931038 0.0858177 0.0861335 0.0931038 0.0934466 0.0861335 0.0864314 0.0934466 0.0937683 0.0864314 0.0867107 0.0937683 0.0940681 0.0867107 0.0869707 0.0940681 0.0943453 0.0869707 0.0872109 0.0943453 0.094599 0.0872109 0.0874307 0.094599 0.0948287 0.0874307 0.0876299 0.0948287 0.095034 0.0876299 0.0878081 0.095034 0.0952147 0.0878081 0.0879655 0.0952147 0.0953707 0.0879655 0.0881021 0.0953707 0.0955024 0.0881021 0.0882183 0.0955024 0.0956102 0.0882183 0.0883147 0.0956102 0.0956953 0.0883147 0.0883924 0.0956953 0.0957589 0.0883924 0.0884525 0.0957589 0.0958029 0.0884525 0.0884967 0.0958029 0.0958298 0.0884967 0.0885268 0.0958298 0.0958429 0.0885268 0.0885452 0.0958429 0.0958464 0.0885452 0.0885545 0.0958464 0.0958455 0.0885545 0.0885577 0.0958455 0.0958448 0.0885577 0.0885585 0 0.00033896 0 0.000327563 0.00033896 0.000762028 0.000327563 0.000720322 0.000762028 0.00119791 0.000720322 0.00115277 0.00119791 0.00165166 0.00115277 0.00160444 0.00165166 0.00212771 0.00160444 0.00207264 0.00212771 0.00262774 0.00207264 0.0025575 0.00262774 0.00315159 0.0025575 0.00305933 0.00315159 0.00369816 0.00305933 0.00357801 0.00369816 0.00426588 0.00357801 0.00411296 0.00426588 0.00485302 0.00411296 0.0046633 0.00485302 0.00545777 0.0046633 0.00522799 0.00545777 0.00607837 0.00522799 0.00580584 0.00607837 0.00671313 0.00580584 0.00639567 0.00671313 0.00736041 0.00639567 0.00699627 0.00736041 0.00801868 0.00699627 0.00760644 0.00801868 0.00868653 0.00760644 0.00822505 0.00868653 0.0093626 0.00822505 0.008851 0.0093626 0.0100456 0.008851 0.00948325 0.0100456 0.0107345 0.00948325 0.0101208 0.0107345 0.0114281 0.0101208 0.0107628 0.0114281 0.0121255 0.0107628 0.0114083 0.0121255 0.0128258 0.0114083 0.0120565 0.0128258 0.0135281 0.0120565 0.0127067 0.0135281 0.0142317 0.0127067 0.0133583 0.0142317 0.0149358 0.0133583 0.0140106 0.0149358 0.01564 0.0140106 0.014663 0.01564 0.0163435 0.014663 0.015315 0.0163435 0.017046 0.015315 0.0159662 0.017046 0.0177469 0.0159662 0.0166161 0.0177469 0.0184459 0.0166161 0.0172644 0.0184459 0.0191426 0.0172644 0.0179108 0.0191426 0.0198367 0.0179108 0.0185549 0.0198367 0.020528 0.0185549 0.0191965 0.020528 0.0212162 0.0191965 0.0198354 0.0212162 0.0219012 0.0198354 0.0204715 0.0219012 0.0225828 0.0204715 0.0211045 0.0225828 0.0232609 0.0211045 0.0217343 0.0232609 0.0239353 0.0217343 0.0223609 0.0239353 0.024606 0.0223609 0.0229841 0.024606 0.025273 0.0229841 0.0236039 0.025273 0.0259362 0.0236039 0.0242203 0.0259362 0.0265956 0.0242203 0.0248332 0.0265956 0.0272512 0.0248332 0.0254426 0.0272512 0.0279031 0.0254426 0.0260486 0.0279031 0.0285511 0.0260486 0.0266511 0.0285511 0.0291955 0.0266511 0.0272501 0.0291955 0.0298361 0.0272501 0.0278457 0.0298361 0.0304732 0.0278457 0.0284379 0.0304732 0.0311066 0.0284379 0.0290268 0.0311066 0.0317365 0.0290268 0.0296124 0.0317365 0.0323629 0.0296124 0.0301947 0.0323629 0.0329858 0.0301947 0.0307737 0.0329858 0.0336054 0.0307737 0.0313496 0.0336054 0.0342217 0.0313496 0.0319224 0.0342217 0.0348347 0.0319224 0.032492 0.0348347 0.0354444 0.032492 0.0330586 0.0354444 0.036051 0.0330586 0.0336222 0.036051 0.0366545 0.0336222 0.0341829 0.0366545 0.0372548 0.0341829 0.0347405 0.0372548 0.0378521 0.0347405 0.0352953 0.0378521 0.0384464 0.0352953 0.0358472 0.0384464 0.0390377 0.0358472 0.0363962 0.0390377 0.039626 0.0363962 0.0369423 0.039626 0.0402114 0.0369423 0.0374857 0.0402114 0.0407939 0.0374857 0.0380262 0.0407939 0.0413734 0.0380262 0.038564 0.0413734 0.0419501 0.038564 0.0390989 0.0419501 0.0425238 0.0390989 0.0396311 0.0425238 0.0430947 0.0396311 0.0401605 0.0430947 0.0436626 0.0401605 0.0406871 0.0436626 0.0442277 0.0406871 0.041211 0.0442277 0.04479 0.041211 0.0417321 0.04479 0.0453493 0.0417321 0.0422504 0.0453493 0.0459058 0.0422504 0.0427659 0.0459058 0.0464594 0.0427659 0.0432786 0.0464594 0.0470101 0.0432786 0.0437886 0.0470101 0.0475579 0.0437886 0.0442958 0.0475579 0.0481029 0.0442958 0.0448002 0.0481029 0.048645 0.0448002 0.0453018 0.048645 0.0491842 0.0453018 0.0458006 0.0491842 0.0497205 0.0458006 0.0462966 0.0497205 0.0502539 0.0462966 0.0467898 0.0502539 0.0507844 0.0467898 0.0472802 0.0507844 0.0513121 0.0472802 0.0477678 0.0513121 0.0518369 0.0477678 0.0482527 0.0518369 0.0523589 0.0482527 0.0487347 0.0523589 0.0528779 0.0487347 0.049214 0.0528779 0.0533942 0.049214 0.0496905 0.0533942 0.0539075 0.0496905 0.0501642 0.0539075 0.0544181 0.0501642 0.0506351 0.0544181 0.0549258 0.0506351 0.0511033 0.0549258 0.0554307 0.0511033 0.0515687 0.0554307 0.0559327 0.0515687 0.0520313 0.0559327 0.056432 0.0520313 0.0524912 0.056432 0.0569284 0.0524912 0.0529483 0.0569284 0.0574221 0.0529483 0.0534027 0.0574221 0.0579129 0.0534027 0.0538544 0.0579129 0.058401 0.0538544 0.0543033 0.058401 0.0588862 0.0543033 0.0547494 0.0588862 0.0593687 0.0547494 0.0551929 0.0593687 0.0598485 0.0551929 0.0556336 0.0598485 0.0603254 0.0556336 0.0560716 0.0603254 0.0607996 0.0560716 0.0565069 0.0607996 0.0612711 0.0565069 0.0569395 0.0612711 0.0617399 0.0569395 0.0573694 0.0617399 0.0622059 0.0573694 0.0577967 0.0622059 0.0626693 0.0577967 0.0582213 0.0626693 0.0631301 0.0582213 0.0586433 0.0631301 0.0635882 0.0586433 0.0590628 0.0635882 0.0640438 0.0590628 0.0594797 0.0640438 0.064497 0.0594797 0.0598942 0.064497 0.0649477 0.0598942 0.0603062 0.0649477 0.0653961 0.0603062 0.060716 0.0653961 0.0658423 0.060716 0.0611235 0.0658423 0.0662864 0.0611235 0.0615288 0.0662864 0.0667285 0.0615288 0.0619321 0.0667285 0.0671687 0.0619321 0.0623336 0.0671687 0.0676073 0.0623336 0.0627332 0.0676073 0.0680445 0.0627332 0.0631313 0.0680445 0.0684803 0.0631313 0.063528 0.0684803 0.0689151 0.063528 0.0639234 0.0689151 0.0693491 0.0639234 0.0643178 0.0693491 0.0697825 0.0643178 0.0647113 0.0697825 0.0702155 0.0647113 0.0651043 0.0702155 0.0706486 0.0651043 0.0654969 0.0706486 0.0710818 0.0654969 0.0658893 0.0710818 0.0715156 0.0658893 0.0662819 0.0715156 0.0719502 0.0662819 0.0666748 0.0719502 0.0723859 0.0666748 0.0670683 0.0723859 0.0728229 0.0670683 0.0674626 0.0728229 0.0732615 0.0674626 0.0678579 0.0732615 0.0737019 0.0678579 0.0682543 0.0737019 0.0741443 0.0682543 0.0686521 0.0741443 0.0745889 0.0686521 0.0690514 0.0745889 0.0750359 0.0690514 0.0694522 0.0750359 0.0754851 0.0694522 0.0698546 0.0754851 0.0759368 0.0698546 0.0702586 0.0759368 0.0763907 0.0702586 0.0706641 0.0763907 0.0768469 0.0706641 0.0710709 0.0768469 0.077305 0.0710709 0.0714789 0.077305 0.0777647 0.0714789 0.0718878 0.0777647 0.0782258 0.0718878 0.0722972 0.0782258 0.0786877 0.0722972 0.0727067 0.0786877 0.0791498 0.0727067 0.0731158 0.0791498 0.0796116 0.0731158 0.073524 0.0796116 0.0800721 0.073524 0.0739304 0.0800721 0.0805306 0.0739304 0.0743344 0.0805306 0.0809862 0.0743344 0.0747351 0.0809862 0.0814378 0.0747351 0.0751317 0.0814378 0.0818844 0.0751317 0.0755232 0.0818844 0.0823247 0.0755232 0.0759086 0.0823247 0.0827578 0.0759086 0.0762869 0.0827578 0.0831823 0.0762869 0.076657 0.0831823 0.0835971 0.076657 0.077018 0.0835971 0.0840009 0.077018 0.0773687 0.0840009 0.0843927 0.0773687 0.0777083 0.0843927 0.0847713 0.0777083 0.0780358 0.0847713 0.0851357 0.0780358 0.0783503 0.0851357 0.0854848 0.0783503 0.0786509 0.0854848 0.0858177 0.0786509 0.0789369 0.0858177 0.0861335 0.0789369 0.0792077 0.0861335 0.0864314 0.0792077 0.0794626 0.0864314 0.0867107 0.0794626 0.0797011 0.0867107 0.0869707 0.0797011 0.0799228 0.0869707 0.0872109 0.0799228 0.0801271 0.0872109 0.0874307 0.0801271 0.080314 0.0874307 0.0876299 0.080314 0.0804831 0.0876299 0.0878081 0.0804831 0.0806344 0.0878081 0.0879655 0.0806344 0.080768 0.0879655 0.0881021 0.080768 0.0808841 0.0881021 0.0882183 0.0808841 0.0809832 0.0882183 0.0883147 0.0809832 0.0810659 0.0883147 0.0883924 0.0810659 0.081133 0.0883924 0.0884525 0.081133 0.0811857 0.0884525 0.0884967 0.0811857 0.081225 0.0884967 0.0885268 0.081225 0.0812524 0.0885268 0.0885452 0.0812524 0.0812693 0.0885452 0.0885545 0.0812693 0.0812774 0.0885545 0.0885577 0.0812774 0.081279 0.0885577 0.0885585 0.081279 0.0812784 0 0.000327563 0 0.000312969 0.000327563 0.000720322 0.000312969 0.000683678 0.000720322 0.00115277 0.000683678 0.00109363 0.00115277 0.00160444 0.00109363 0.00152868 0.00160444 0.00207264 0.00152868 0.0019805 0.00207264 0.0025575 0.0019805 0.00244632 0.0025575 0.00305933 0.00244632 0.00292525 0.00305933 0.00357801 0.00292525 0.00341697 0.00357801 0.00411296 0.00341697 0.00392113 0.00411296 0.0046633 0.00392113 0.00443727 0.0046633 0.00522799 0.00443727 0.00496477 0.00522799 0.00580584 0.00496477 0.0055029 0.00580584 0.00639567 0.0055029 0.00605085 0.00639567 0.00699627 0.00605085 0.00660774 0.00699627 0.00760644 0.00660774 0.0071727 0.00760644 0.00822505 0.0071727 0.00774484 0.00822505 0.008851 0.00774484 0.0083233 0.008851 0.00948325 0.0083233 0.00890722 0.00948325 0.0101208 0.00890722 0.00949579 0.0101208 0.0107628 0.00949579 0.0100882 0.0107628 0.0114083 0.0100882 0.0106839 0.0114083 0.0120565 0.0106839 0.0112819 0.0120565 0.0127067 0.0112819 0.0118818 0.0127067 0.0133583 0.0118818 0.0124829 0.0133583 0.0140106 0.0124829 0.0130847 0.0140106 0.014663 0.0130847 0.0136867 0.014663 0.015315 0.0136867 0.0142883 0.015315 0.0159662 0.0142883 0.0148893 0.0159662 0.0166161 0.0148893 0.0154892 0.0166161 0.0172644 0.0154892 0.0160876 0.0172644 0.0179108 0.0160876 0.0166844 0.0179108 0.0185549 0.0166844 0.0172791 0.0185549 0.0191965 0.0172791 0.0178716 0.0191965 0.0198354 0.0178716 0.0184617 0.0198354 0.0204715 0.0184617 0.0190492 0.0204715 0.0211045 0.0190492 0.019634 0.0211045 0.0217343 0.019634 0.0202158 0.0217343 0.0223609 0.0202158 0.0207948 0.0223609 0.0229841 0.0207948 0.0213706 0.0229841 0.0236039 0.0213706 0.0219434 0.0236039 0.0242203 0.0219434 0.022513 0.0242203 0.0248332 0.022513 0.0230794 0.0248332 0.0254426 0.0230794 0.0236427 0.0254426 0.0260486 0.0236427 0.0242027 0.0260486 0.0266511 0.0242027 0.0247596 0.0266511 0.0272501 0.0247596 0.0253132 0.0272501 0.0278457 0.0253132 0.0258637 0.0278457 0.0284379 0.0258637 0.026411 0.0284379 0.0290268 0.026411 0.0269553 0.0290268 0.0296124 0.0269553 0.0274964 0.0296124 0.0301947 0.0274964 0.0280345 0.0301947 0.0307737 0.0280345 0.0285695 0.0307737 0.0313496 0.0285695 0.0291016 0.0313496 0.0319224 0.0291016 0.0296308 0.0319224 0.032492 0.0296308 0.030157 0.032492 0.0330586 0.030157 0.0306804 0.0330586 0.0336222 0.0306804 0.0312009 0.0336222 0.0341829 0.0312009 0.0317186 0.0341829 0.0347405 0.0317186 0.0322335 0.0347405 0.0352953 0.0322335 0.0327456 0.0352953 0.0358472 0.0327456 0.033255 0.0358472 0.0363962 0.033255 0.0337617 0.0363962 0.0369423 0.0337617 0.0342657 0.0369423 0.0374857 0.0342657 0.034767 0.0374857 0.0380262 0.034767 0.0352656 0.0380262 0.038564 0.0352656 0.0357615 0.038564 0.0390989 0.0357615 0.0362548 0.0390989 0.0396311 0.0362548 0.0367453 0.0396311 0.0401605 0.0367453 0.0372333 0.0401605 0.0406871 0.0372333 0.0377185 0.0406871 0.041211 0.0377185 0.0382011 0.041211 0.0417321 0.0382011 0.0386811 0.0417321 0.0422504 0.0386811 0.0391583 0.0422504 0.0427659 0.0391583 0.0396329 0.0427659 0.0432786 0.0396329 0.0401048 0.0432786 0.0437886 0.0401048 0.040574 0.0437886 0.0442958 0.040574 0.0410405 0.0442958 0.0448002 0.0410405 0.0415044 0.0448002 0.0453018 0.0415044 0.0419655 0.0453018 0.0458006 0.0419655 0.0424239 0.0458006 0.0462966 0.0424239 0.0428796 0.0462966 0.0467898 0.0428796 0.0433327 0.0467898 0.0472802 0.0433327 0.0437829 0.0472802 0.0477678 0.0437829 0.0442305 0.0477678 0.0482527 0.0442305 0.0446754 0.0482527 0.0487347 0.0446754 0.0451176 0.0487347 0.049214 0.0451176 0.045557 0.049214 0.0496905 0.045557 0.0459937 0.0496905 0.0501642 0.0459937 0.0464277 0.0501642 0.0506351 0.0464277 0.0468591 0.0506351 0.0511033 0.0468591 0.0472877 0.0511033 0.0515687 0.0472877 0.0477136 0.0515687 0.0520313 0.0477136 0.0481368 0.0520313 0.0524912 0.0481368 0.0485573 0.0524912 0.0529483 0.0485573 0.0489751 0.0529483 0.0534027 0.0489751 0.0493902 0.0534027 0.0538544 0.0493902 0.0498027 0.0538544 0.0543033 0.0498027 0.0502124 0.0543033 0.0547494 0.0502124 0.0506195 0.0547494 0.0551929 0.0506195 0.0510238 0.0551929 0.0556336 0.0510238 0.0514255 0.0556336 0.0560716 0.0514255 0.0518245 0.0560716 0.0565069 0.0518245 0.0522209 0.0565069 0.0569395 0.0522209 0.0526146 0.0569395 0.0573694 0.0526146 0.0530056 0.0573694 0.0577967 0.0530056 0.053394 0.0577967 0.0582213 0.053394 0.0537798 0.0582213 0.0586433 0.0537798 0.054163 0.0586433 0.0590628 0.054163 0.0545436 0.0590628 0.0594797 0.0545436 0.0549217 0.0594797 0.0598942 0.0549217 0.0552973 0.0598942 0.0603062 0.0552973 0.0556705 0.0603062 0.060716 0.0556705 0.0560414 0.060716 0.0611235 0.0560414 0.0564099 0.0611235 0.0615288 0.0564099 0.0567762 0.0615288 0.0619321 0.0567762 0.0571405 0.0619321 0.0623336 0.0571405 0.0575027 0.0623336 0.0627332 0.0575027 0.057863 0.0627332 0.0631313 0.057863 0.0582216 0.0631313 0.063528 0.0582216 0.0585786 0.063528 0.0639234 0.0585786 0.0589342 0.0639234 0.0643178 0.0589342 0.0592884 0.0643178 0.0647113 0.0592884 0.0596416 0.0647113 0.0651043 0.0596416 0.0599939 0.0651043 0.0654969 0.0599939 0.0603455 0.0654969 0.0658893 0.0603455 0.0606966 0.0658893 0.0662819 0.0606966 0.0610474 0.0662819 0.0666748 0.0610474 0.0613981 0.0666748 0.0670683 0.0613981 0.0617488 0.0670683 0.0674626 0.0617488 0.0620999 0.0674626 0.0678579 0.0620999 0.0624514 0.0678579 0.0682543 0.0624514 0.0628036 0.0682543 0.0686521 0.0628036 0.0631565 0.0686521 0.0690514 0.0631565 0.0635102 0.0690514 0.0694522 0.0635102 0.0638648 0.0694522 0.0698546 0.0638648 0.0642204 0.0698546 0.0702586 0.0642204 0.0645769 0.0702586 0.0706641 0.0645769 0.0649343 0.0706641 0.0710709 0.0649343