# vtk DataFile Version 3.0
#This file was generated by the deal.II library on 2021/2/10 at 1:34:53
ASCII
DATASET UNSTRUCTURED_GRID

POINTS 43200 double
0 -0.5 0
0.0166667 -0.5 0
0 -0.483333 0
0.0166667 -0.483333 0
0.0166667 -0.5 0
0.0333333 -0.5 0
0.0166667 -0.483333 0
0.0333333 -0.483333 0
0.0333333 -0.5 0
0.05 -0.5 0
0.0333333 -0.483333 0
0.05 -0.483333 0
0.05 -0.5 0
0.0666667 -0.5 0
0.05 -0.483333 0
0.0666667 -0.483333 0
0.0666667 -0.5 0
0.0833333 -0.5 0
0.0666667 -0.483333 0
0.0833333 -0.483333 0
0.0833333 -0.5 0
0.1 -0.5 0
0.0833333 -0.483333 0
0.1 -0.483333 0
0.1 -0.5 0
0.116667 -0.5 0
0.1 -0.483333 0
0.116667 -0.483333 0
0.116667 -0.5 0
0.133333 -0.5 0
0.116667 -0.483333 0
0.133333 -0.483333 0
0.133333 -0.5 0
0.15 -0.5 0
0.133333 -0.483333 0
0.15 -0.483333 0
0.15 -0.5 0
0.166667 -0.5 0
0.15 -0.483333 0
0.166667 -0.483333 0
0.166667 -0.5 0
0.183333 -0.5 0
0.166667 -0.483333 0
0.183333 -0.483333 0
0.183333 -0.5 0
0.2 -0.5 0
0.183333 -0.483333 0
0.2 -0.483333 0
0.2 -0.5 0
0.216667 -0.5 0
0.2 -0.483333 0
0.216667 -0.483333 0
0.216667 -0.5 0
0.233333 -0.5 0
0.216667 -0.483333 0
0.233333 -0.483333 0
0.233333 -0.5 0
0.25 -0.5 0
0.233333 -0.483333 0
0.25 -0.483333 0
0.25 -0.5 0
0.266667 -0.5 0
0.25 -0.483333 0
0.266667 -0.483333 0
0.266667 -0.5 0
0.283333 -0.5 0
0.266667 -0.483333 0
0.283333 -0.483333 0
0.283333 -0.5 0
0.3 -0.5 0
0.283333 -0.483333 0
0.3 -0.483333 0
0.3 -0.5 0
0.316667 -0.5 0
0.3 -0.483333 0
0.316667 -0.483333 0
0.316667 -0.5 0
0.333333 -0.5 0
0.316667 -0.483333 0
0.333333 -0.483333 0
0.333333 -0.5 0
0.35 -0.5 0
0.333333 -0.483333 0
0.35 -0.483333 0
0.35 -0.5 0
0.366667 -0.5 0
0.35 -0.483333 0
0.366667 -0.483333 0
0.366667 -0.5 0
0.383333 -0.5 0
0.366667 -0.483333 0
0.383333 -0.483333 0
0.383333 -0.5 0
0.4 -0.5 0
0.383333 -0.483333 0
0.4 -0.483333 0
0.4 -0.5 0
0.416667 -0.5 0
0.4 -0.483333 0
0.416667 -0.483333 0
0.416667 -0.5 0
0.433333 -0.5 0
0.416667 -0.483333 0
0.433333 -0.483333 0
0.433333 -0.5 0
0.45 -0.5 0
0.433333 -0.483333 0
0.45 -0.483333 0
0.45 -0.5 0
0.466667 -0.5 0
0.45 -0.483333 0
0.466667 -0.483333 0
0.466667 -0.5 0
0.483333 -0.5 0
0.466667 -0.483333 0
0.483333 -0.483333 0
0.483333 -0.5 0
0.5 -0.5 0
0.483333 -0.483333 0
0.5 -0.483333 0
0.5 -0.5 0
0.516667 -0.5 0
0.5 -0.483333 0
0.516667 -0.483333 0
0.516667 -0.5 0
0.533333 -0.5 0
0.516667 -0.483333 0
0.533333 -0.483333 0
0.533333 -0.5 0
0.55 -0.5 0
0.533333 -0.483333 0
0.55 -0.483333 0
0.55 -0.5 0
0.566667 -0.5 0
0.55 -0.483333 0
0.566667 -0.483333 0
0.566667 -0.5 0
0.583333 -0.5 0
0.566667 -0.483333 0
0.583333 -0.483333 0
0.583333 -0.5 0
0.6 -0.5 0
0.583333 -0.483333 0
0.6 -0.483333 0
0.6 -0.5 0
0.616667 -0.5 0
0.6 -0.483333 0
0.616667 -0.483333 0
0.616667 -0.5 0
0.633333 -0.5 0
0.616667 -0.483333 0
0.633333 -0.483333 0
0.633333 -0.5 0
0.65 -0.5 0
0.633333 -0.483333 0
0.65 -0.483333 0
0.65 -0.5 0
0.666667 -0.5 0
0.65 -0.483333 0
0.666667 -0.483333 0
0.666667 -0.5 0
0.683333 -0.5 0
0.666667 -0.483333 0
0.683333 -0.483333 0
0.683333 -0.5 0
0.7 -0.5 0
0.683333 -0.483333 0
0.7 -0.483333 0
0.7 -0.5 0
0.716667 -0.5 0
0.7 -0.483333 0
0.716667 -0.483333 0
0.716667 -0.5 0
0.733333 -0.5 0
0.716667 -0.483333 0
0.733333 -0.483333 0
0.733333 -0.5 0
0.75 -0.5 0
0.733333 -0.483333 0
0.75 -0.483333 0
0.75 -0.5 0
0.766667 -0.5 0
0.75 -0.483333 0
0.766667 -0.483333 0
0.766667 -0.5 0
0.783333 -0.5 0
0.766667 -0.483333 0
0.783333 -0.483333 0
0.783333 -0.5 0
0.8 -0.5 0
0.783333 -0.483333 0
0.8 -0.483333 0
0.8 -0.5 0
0.816667 -0.5 0
0.8 -0.483333 0
0.816667 -0.483333 0
0.816667 -0.5 0
0.833333 -0.5 0
0.816667 -0.483333 0
0.833333 -0.483333 0
0.833333 -0.5 0
0.85 -0.5 0
0.833333 -0.483333 0
0.85 -0.483333 0
0.85 -0.5 0
0.866667 -0.5 0
0.85 -0.483333 0
0.866667 -0.483333 0
0.866667 -0.5 0
0.883333 -0.5 0
0.866667 -0.483333 0
0.883333 -0.483333 0
0.883333 -0.5 0
0.9 -0.5 0
0.883333 -0.483333 0
0.9 -0.483333 0
0.9 -0.5 0
0.916667 -0.5 0
0.9 -0.483333 0
0.916667 -0.483333 0
0.916667 -0.5 0
0.933333 -0.5 0
0.916667 -0.483333 0
0.933333 -0.483333 0
0.933333 -0.5 0
0.95 -0.5 0
0.933333 -0.483333 0
0.95 -0.483333 0
0.95 -0.5 0
0.966667 -0.5 0
0.95 -0.483333 0
0.966667 -0.483333 0
0.966667 -0.5 0
0.983333 -0.5 0
0.966667 -0.483333 0
0.983333 -0.483333 0
0.983333 -0.5 0
1 -0.5 0
0.983333 -0.483333 0
1 -0.483333 0
1 -0.5 0
1.01667 -0.5 0
1 -0.483333 0
1.01667 -0.483333 0
1.01667 -0.5 0
1.03333 -0.5 0
1.01667 -0.483333 0
1.03333 -0.483333 0
1.03333 -0.5 0
1.05 -0.5 0
1.03333 -0.483333 0
1.05 -0.483333 0
1.05 -0.5 0
1.06667 -0.5 0
1.05 -0.483333 0
1.06667 -0.483333 0
1.06667 -0.5 0
1.08333 -0.5 0
1.06667 -0.483333 0
1.08333 -0.483333 0
1.08333 -0.5 0
1.1 -0.5 0
1.08333 -0.483333 0
1.1 -0.483333 0
1.1 -0.5 0
1.11667 -0.5 0
1.1 -0.483333 0
1.11667 -0.483333 0
1.11667 -0.5 0
1.13333 -0.5 0
1.11667 -0.483333 0
1.13333 -0.483333 0
1.13333 -0.5 0
1.15 -0.5 0
1.13333 -0.483333 0
1.15 -0.483333 0
1.15 -0.5 0
1.16667 -0.5 0
1.15 -0.483333 0
1.16667 -0.483333 0
1.16667 -0.5 0
1.18333 -0.5 0
1.16667 -0.483333 0
1.18333 -0.483333 0
1.18333 -0.5 0
1.2 -0.5 0
1.18333 -0.483333 0
1.2 -0.483333 0
1.2 -0.5 0
1.21667 -0.5 0
1.2 -0.483333 0
1.21667 -0.483333 0
1.21667 -0.5 0
1.23333 -0.5 0
1.21667 -0.483333 0
1.23333 -0.483333 0
1.23333 -0.5 0
1.25 -0.5 0
1.23333 -0.483333 0
1.25 -0.483333 0
1.25 -0.5 0
1.26667 -0.5 0
1.25 -0.483333 0
1.26667 -0.483333 0
1.26667 -0.5 0
1.28333 -0.5 0
1.26667 -0.483333 0
1.28333 -0.483333 0
1.28333 -0.5 0
1.3 -0.5 0
1.28333 -0.483333 0
1.3 -0.483333 0
1.3 -0.5 0
1.31667 -0.5 0
1.3 -0.483333 0
1.31667 -0.483333 0
1.31667 -0.5 0
1.33333 -0.5 0
1.31667 -0.483333 0
1.33333 -0.483333 0
1.33333 -0.5 0
1.35 -0.5 0
1.33333 -0.483333 0
1.35 -0.483333 0
1.35 -0.5 0
1.36667 -0.5 0
1.35 -0.483333 0
1.36667 -0.483333 0
1.36667 -0.5 0
1.38333 -0.5 0
1.36667 -0.483333 0
1.38333 -0.483333 0
1.38333 -0.5 0
1.4 -0.5 0
1.38333 -0.483333 0
1.4 -0.483333 0
1.4 -0.5 0
1.41667 -0.5 0
1.4 -0.483333 0
1.41667 -0.483333 0
1.41667 -0.5 0
1.43333 -0.5 0
1.41667 -0.483333 0
1.43333 -0.483333 0
1.43333 -0.5 0
1.45 -0.5 0
1.43333 -0.483333 0
1.45 -0.483333 0
1.45 -0.5 0
1.46667 -0.5 0
1.45 -0.483333 0
1.46667 -0.483333 0
1.46667 -0.5 0
1.48333 -0.5 0
1.46667 -0.483333 0
1.48333 -0.483333 0
1.48333 -0.5 0
1.5 -0.5 0
1.48333 -0.483333 0
1.5 -0.483333 0
1.5 -0.5 0
1.51667 -0.5 0
1.5 -0.483333 0
1.51667 -0.483333 0
1.51667 -0.5 0
1.53333 -0.5 0
1.51667 -0.483333 0
1.53333 -0.483333 0
1.53333 -0.5 0
1.55 -0.5 0
1.53333 -0.483333 0
1.55 -0.483333 0
1.55 -0.5 0
1.56667 -0.5 0
1.55 -0.483333 0
1.56667 -0.483333 0
1.56667 -0.5 0
1.58333 -0.5 0
1.56667 -0.483333 0
1.58333 -0.483333 0
1.58333 -0.5 0
1.6 -0.5 0
1.58333 -0.483333 0
1.6 -0.483333 0
1.6 -0.5 0
1.61667 -0.5 0
1.6 -0.483333 0
1.61667 -0.483333 0
1.61667 -0.5 0
1.63333 -0.5 0
1.61667 -0.483333 0
1.63333 -0.483333 0
1.63333 -0.5 0
1.65 -0.5 0
1.63333 -0.483333 0
1.65 -0.483333 0
1.65 -0.5 0
1.66667 -0.5 0
1.65 -0.483333 0
1.66667 -0.483333 0
1.66667 -0.5 0
1.68333 -0.5 0
1.66667 -0.483333 0
1.68333 -0.483333 0
1.68333 -0.5 0
1.7 -0.5 0
1.68333 -0.483333 0
1.7 -0.483333 0
1.7 -0.5 0
1.71667 -0.5 0
1.7 -0.483333 0
1.71667 -0.483333 0
1.71667 -0.5 0
1.73333 -0.5 0
1.71667 -0.483333 0
1.73333 -0.483333 0
1.73333 -0.5 0
1.75 -0.5 0
1.73333 -0.483333 0
1.75 -0.483333 0
1.75 -0.5 0
1.76667 -0.5 0
1.75 -0.483333 0
1.76667 -0.483333 0
1.76667 -0.5 0
1.78333 -0.5 0
1.76667 -0.483333 0
1.78333 -0.483333 0
1.78333 -0.5 0
1.8 -0.5 0
1.78333 -0.483333 0
1.8 -0.483333 0
1.8 -0.5 0
1.81667 -0.5 0
1.8 -0.483333 0
1.81667 -0.483333 0
1.81667 -0.5 0
1.83333 -0.5 0
1.81667 -0.483333 0
1.83333 -0.483333 0
1.83333 -0.5 0
1.85 -0.5 0
1.83333 -0.483333 0
1.85 -0.483333 0
1.85 -0.5 0
1.86667 -0.5 0
1.85 -0.483333 0
1.86667 -0.483333 0
1.86667 -0.5 0
1.88333 -0.5 0
1.86667 -0.483333 0
1.88333 -0.483333 0
1.88333 -0.5 0
1.9 -0.5 0
1.88333 -0.483333 0
1.9 -0.483333 0
1.9 -0.5 0
1.91667 -0.5 0
1.9 -0.483333 0
1.91667 -0.483333 0
1.91667 -0.5 0
1.93333 -0.5 0
1.91667 -0.483333 0
1.93333 -0.483333 0
1.93333 -0.5 0
1.95 -0.5 0
1.93333 -0.483333 0
1.95 -0.483333 0
1.95 -0.5 0
1.96667 -0.5 0
1.95 -0.483333 0
1.96667 -0.483333 0
1.96667 -0.5 0
1.98333 -0.5 0
1.96667 -0.483333 0
1.98333 -0.483333 0
1.98333 -0.5 0
2 -0.5 0
1.98333 -0.483333 0
2 -0.483333 0
2 -0.5 0
2.01667 -0.5 0
2 -0.483333 0
2.01667 -0.483333 0
2.01667 -0.5 0
2.03333 -0.5 0
2.01667 -0.483333 0
2.03333 -0.483333 0
2.03333 -0.5 0
2.05 -0.5 0
2.03333 -0.483333 0
2.05 -0.483333 0
2.05 -0.5 0
2.06667 -0.5 0
2.05 -0.483333 0
2.06667 -0.483333 0
2.06667 -0.5 0
2.08333 -0.5 0
2.06667 -0.483333 0
2.08333 -0.483333 0
2.08333 -0.5 0
2.1 -0.5 0
2.08333 -0.483333 0
2.1 -0.483333 0
2.1 -0.5 0
2.11667 -0.5 0
2.1 -0.483333 0
2.11667 -0.483333 0
2.11667 -0.5 0
2.13333 -0.5 0
2.11667 -0.483333 0
2.13333 -0.483333 0
2.13333 -0.5 0
2.15 -0.5 0
2.13333 -0.483333 0
2.15 -0.483333 0
2.15 -0.5 0
2.16667 -0.5 0
2.15 -0.483333 0
2.16667 -0.483333 0
2.16667 -0.5 0
2.18333 -0.5 0
2.16667 -0.483333 0
2.18333 -0.483333 0
2.18333 -0.5 0
2.2 -0.5 0
2.18333 -0.483333 0
2.2 -0.483333 0
2.2 -0.5 0
2.21667 -0.5 0
2.2 -0.483333 0
2.21667 -0.483333 0
2.21667 -0.5 0
2.23333 -0.5 0
2.21667 -0.483333 0
2.23333 -0.483333 0
2.23333 -0.5 0
2.25 -0.5 0
2.23333 -0.483333 0
2.25 -0.483333 0
2.25 -0.5 0
2.26667 -0.5 0
2.25 -0.483333 0
2.26667 -0.483333 0
2.26667 -0.5 0
2.28333 -0.5 0
2.26667 -0.483333 0
2.28333 -0.483333 0
2.28333 -0.5 0
2.3 -0.5 0
2.28333 -0.483333 0
2.3 -0.483333 0
2.3 -0.5 0
2.31667 -0.5 0
2.3 -0.483333 0
2.31667 -0.483333 0
2.31667 -0.5 0
2.33333 -0.5 0
2.31667 -0.483333 0
2.33333 -0.483333 0
2.33333 -0.5 0
2.35 -0.5 0
2.33333 -0.483333 0
2.35 -0.483333 0
2.35 -0.5 0
2.36667 -0.5 0
2.35 -0.483333 0
2.36667 -0.483333 0
2.36667 -0.5 0
2.38333 -0.5 0
2.36667 -0.483333 0
2.38333 -0.483333 0
2.38333 -0.5 0
2.4 -0.5 0
2.38333 -0.483333 0
2.4 -0.483333 0
2.4 -0.5 0
2.41667 -0.5 0
2.4 -0.483333 0
2.41667 -0.483333 0
2.41667 -0.5 0
2.43333 -0.5 0
2.41667 -0.483333 0
2.43333 -0.483333 0
2.43333 -0.5 0
2.45 -0.5 0
2.43333 -0.483333 0
2.45 -0.483333 0
2.45 -0.5 0
2.46667 -0.5 0
2.45 -0.483333 0
2.46667 -0.483333 0
2.46667 -0.5 0
[...]
POINT_DATA 43200
SCALARS x1_displacement double 1
LOOKUP_TABLE default
0 -0.000269085 0 -4.26942e-05 -0.000269085 -0.000381149 -4.26942e-05 -7.27946e-05 -0.000381149 -0.000376515 -7.27946e-05 -4.45014e-05 -0.000376515 -0.000286542 -4.45014e-05 4.18869e-05 -0.000286542 -0.000126825 4.18869e-05 0.000181381 -0.000126825 9.13456e-05 0.000181381 0.000368315 9.13456e-05 0.000359475 0.000368315 0.000597386 0.000359475 0.000670699 0.000597386 0.000863809 0.000670699 0.00101929 0.000863809 0.00116329 0.00101929 0.00140032 0.00116329 0.00149198 0.00140032 0.00180954 0.00149198 0.00184637 0.00180954 0.00224315 0.00184637 0.00222333 0.00224315 0.0026978 0.00222333 0.00261998 0.0026978 0.00317049 0.00261998 0.00303372 0.00317049 0.00365852 0.00303372 0.00346217 0.00365852 0.00415945 0.00346217 0.00390317 0.00415945 0.00467111 0.00390317 0.00435475 0.00467111 0.00519152 0.00435475 0.00481514 0.00519152 0.00571892 0.00481514 0.00528271 0.00571892 0.00625171 0.00528271 0.00575601 0.00625171 0.00678849 0.00575601 0.00623373 0.00678849 0.00732798 0.00623373 0.00671467 0.00732798 0.00786908 0.00671467 0.0071978 0.00786908 0.00841079 0.0071978 0.00768217 0.00841079 0.00895225 0.00768217 0.00816696 0.00895225 0.00949272 0.00816696 0.00865144 0.00949272 0.0100315 0.00865144 0.00913498 0.0100315 0.0105681 0.00913498 0.00961704 0.0105681 0.0111021 0.00961704 0.0100971 0.0111021 0.011633 0.0100971 0.0105749 0.011633 0.0121604 0.0105749 0.0110499 0.0121604 0.0126843 0.0110499 0.011522 0.0126843 0.0132043 0.011522 0.011991 0.0132043 0.0137203 0.011991 0.0124566 0.0137203 0.0142322 0.0124566 0.0129187 0.0142322 0.0147399 0.0129187 0.0133772 0.0147399 0.0152435 0.0133772 0.0138321 0.0152435 0.0157428 0.0138321 0.0142834 0.0157428 0.016238 0.0142834 0.014731 0.016238 0.016729 0.014731 0.0151749 0.016729 0.017216 0.0151749 0.0156153 0.017216 0.017699 0.0156153 0.0160522 0.017699 0.0181782 0.0160522 0.0164855 0.0181782 0.0186535 0.0164855 0.0169155 0.0186535 0.0191253 0.0169155 0.0173422 0.0191253 0.0195934 0.0173422 0.0177657 0.0195934 0.0200582 0.0177657 0.0181861 0.0200582 0.0205197 0.0181861 0.0186035 0.0205197 0.020978 0.0186035 0.019018 0.020978 0.0214333 0.019018 0.0194297 0.0214333 0.0218857 0.0194297 0.0198387 0.0218857 0.0223354 0.0198387 0.0202452 0.0223354 0.0227823 0.0202452 0.0206492 0.0227823 0.0232268 0.0206492 0.0210508 0.0232268 0.0236688 0.0210508 0.0214502 0.0236688 0.0241085 0.0214502 0.0218475 0.0241085 0.0245459 0.0218475 0.0222426 0.0245459 0.0249813 0.0222426 0.0226358 0.0249813 0.0254146 0.0226358 0.023027 0.0254146 0.025846 0.023027 0.0234164 0.025846 0.0262756 0.0234164 0.0238041 0.0262756 0.0267033 0.0238041 0.02419 0.0267033 0.0271293 0.02419 0.0245744 0.0271293 0.0275537 0.0245744 0.0249571 0.0275537 0.0279765 0.0249571 0.0253384 0.0279765 0.0283977 0.0253384 0.0257181 0.0283977 0.0288175 0.0257181 0.0260964 0.0288175 0.0292357 0.0260964 0.0264734 0.0292357 0.0296526 0.0264734 0.0268489 0.0296526 0.030068 0.0268489 0.0272231 0.030068 0.030482 0.0272231 0.027596 0.030482 0.0308947 0.027596 0.0279676 0.0308947 0.0313061 0.0279676 0.0283379 0.0313061 0.0317161 0.0283379 0.028707 0.0317161 0.0321249 0.028707 0.0290748 0.0321249 0.0325323 0.0290748 0.0294413 0.0325323 0.0329384 0.0294413 0.0298066 0.0329384 0.0333432 0.0298066 0.0301707 0.0333432 0.0337467 0.0301707 0.0305335 0.0337467 0.0341489 0.0305335 0.0308951 0.0341489 0.0345498 0.0308951 0.0312554 0.0345498 0.0349494 0.0312554 0.0316145 0.0349494 0.0353477 0.0316145 0.0319723 0.0353477 0.0357447 0.0319723 0.0323288 0.0357447 0.0361403 0.0323288 0.0326841 0.0361403 0.0365346 0.0326841 0.0330381 0.0365346 0.0369275 0.0330381 0.0333908 0.0369275 0.0373191 0.0333908 0.0337422 0.0373191 0.0377093 0.0337422 0.0340923 0.0377093 0.0380981 0.0340923 0.034441 0.0380981 0.0384855 0.034441 0.0347883 0.0384855 0.0388714 0.0347883 0.0351343 0.0388714 0.0392558 0.0351343 0.0354789 0.0392558 0.0396387 0.0354789 0.035822 0.0396387 0.0400201 0.035822 0.0361636 0.0400201 0.0403998 0.0361636 0.0365037 0.0403998 0.0407779 0.0365037 0.0368422 0.0407779 0.0411543 0.0368422 0.0371791 0.0411543 0.0415289 0.0371791 0.0375143 0.0415289 0.0419016 0.0375143 0.0378477 0.0419016 0.0422724 0.0378477 0.0381794 0.0422724 0.0426411 0.0381794 0.0385092 0.0426411 0.0430078 0.0385092 0.038837 0.0430078 0.0433722 0.038837 0.0391628 0.0433722 0.0437345 0.0391628 0.0394866 0.0437345 0.0440944 0.0394866 0.0398084 0.0440944 0.044452 0.0398084 0.040128 0.044452 0.0448072 0.040128 0.0404454 0.0448072 0.04516 0.0404454 0.0407607 0.04516 0.0455105 0.0407607 0.041074 0.0455105 0.0458586 0.041074 0.0413851 0.0458586 0.0462044 0.0413851 0.0416942 0.0462044 0.046548 0.0416942 0.0420014 0.046548 0.0468896 0.0420014 0.0423069 0.0468896 0.0472293 0.0423069 0.0426107 0.0472293 0.0475673 0.0426107 0.042913 0.0475673 0.0479039 0.042913 0.0432141 0.0479039 0.0482392 0.0432141 0.0435142 0.0482392 0.0485737 0.0435142 0.0438135 0.0485737 0.0489076 0.0438135 0.0441124 0.0489076 0.0492413 0.0441124 0.0444112 0.0492413 0.0495752 0.0444112 0.0447103 0.0495752 0.0499097 0.0447103 0.04501 0.0499097 0.0502453 0.04501 0.0453107 0.0502453 0.0505825 0.0453107 0.0456128 0.0505825 0.0509217 0.0456128 0.0459168 0.0509217 0.0512636 0.0459168 0.0462232 0.0512636 0.0516086 0.0462232 0.0465325 0.0516086 0.0519573 0.0465325 0.0468451 0.0519573 0.0523103 0.0468451 0.0471616 0.0523103 0.0526683 0.0471616 0.0474824 0.0526683 0.0530318 0.0474824 0.0478081 0.0530318 0.0534015 0.0478081 0.0481393 0.0534015 0.0537779 0.0481393 0.0484765 0.0537779 0.0541617 0.0484765 0.0488201 0.0541617 0.0545536 0.0488201 0.0491708 0.0545536 0.054954 0.0491708 0.0495288 0.054954 0.0553635 0.0495288 0.0498948 0.0553635 0.0557826 0.0498948 0.050269 0.0557826 0.0562118 0.050269 0.0506518 0.0562118 0.0566514 0.0506518 0.0510435 0.0566514 0.0571016 0.0510435 0.0514441 0.0571016 0.0575626 0.0514441 0.0518539 0.0575626 0.0580344 0.0518539 0.0522726 0.0580344 0.0585169 0.0522726 0.0527002 0.0585169 0.0590097 0.0527002 0.0531362 0.0590097 0.0595123 0.0531362 0.0535802 0.0595123 0.0600239 0.0535802 0.0540312 0.0600239 0.0605435 0.0540312 0.0544885 0.0605435 0.0610697 0.0544885 0.0549508 0.0610697 0.0616009 0.0549508 0.0554166 0.0616009 0.0621352 0.0554166 0.0558843 0.0621352 0.0626703 0.0558843 0.0563518 0.0626703 0.0632036 0.0563518 0.0568171 0.0632036 0.0637324 0.0568171 0.0572776 0.0637324 0.0642535 0.0572776 0.0577308 0.0642535 0.0647638 0.0577308 0.058174 0.0647638 0.06526 0.058174 0.0586046 0.06526 0.0657392 0.0586046 0.05902 0.0657392 0.0661985 0.05902 0.0594175 0.0661985 0.0666357 0.0594175 0.0597953 0.0666357 0.0670489 0.0597953 0.0601514 0.0670489 0.0674376 0.0601514 0.0604848 0.0674376 0.0678017 0.0604848 0.0607948 0.0678017 0.0681422 0.0607948 0.0610813 0.0681422 0.0684605 0.0610813 0.0613446 0.0684605 0.068758 0.0613446 0.0615847 0.068758 0.0690361 0.0615847 0.0618014 0.0690361 0.0692961 0.0618014 0.061994 0.0692961 0.0695402 0.061994 0.0621615 0.0695402 0.0697715 0.0621615 0.0623035 0.0697715 0.0699932 0.0623035 0.0624189 0.0699932 0.070205 0.0624189 0.0625069 0.070205 0.070393 0.0625069 0.0625691 0.070393 0.0705257 0.0625691 0.0625947 0.0705257 0.0705727 0.0625947 0.06257 0.0705727 0.0705436 0.06257 0.0625082 0.0705436 0.0704892 0.0625082 0.0624484 0.0704892 0.0704565 0.0624484 0.0624198 0.0704565 0.07045 0.0624198 0.0624193 0 -4.26942e-05 0 1.88904e-05 -4.26942e-05 -7.27946e-05 1.88904e-05 6.61189e-05 -7.27946e-05 -4.45014e-05 6.61189e-05 0.000134182 -4.45014e-05 4.18869e-05 0.000134182 0.000234439 4.18869e-05 0.000181381 0.000234439 0.000369576 0.000181381 0.000368315 0.000369576 0.000539222 0.000368315 0.000597386 0.000539222 0.000741524 0.000597386 0.000863809 0.000741524 0.00097405 0.000863809 0.00116329 0.00097405 0.00123417 0.00116329 0.00149198 0.00123417 0.00151927 0.00149198 0.00184637 0.00151927 0.00182677 0.00184637 0.00222333 0.00182677 0.00215426 0.00222333 0.00261998 0.00215426 0.00249943 0.00261998 0.00303372 0.00249943 0.00286015 0.00303372 0.00346217 0.00286015 0.00323442 0.00346217 0.00390317 0.00323442 0.0036204 0.00390317 0.00435475 0.0036204 0.00401637 0.00435475 0.00481514 0.00401637 0.00442077 0.00481514 0.00528271 0.00442077 0.00483217 0.00528271 0.00575601 0.00483217 0.00524925 0.00575601 0.00623373 0.00524925 0.00567085 0.00623373 0.00671467 0.00567085 0.00609587 0.00671467 0.0071978 0.00609587 0.00652336 0.0071978 0.00768217 0.00652336 0.00695245 0.00768217 0.00816696 0.00695245 0.00738238 0.00816696 0.00865144 0.00738238 0.00781246 0.00865144 0.00913498 0.00781246 0.0082421 0.00913498 0.00961704 0.0082421 0.00867077 0.00961704 0.0100971 0.00867077 0.00909802 0.0100971 0.0105749 0.00909802 0.00952347 0.0105749 0.0110499 0.00952347 0.00994679 0.0110499 0.011522 0.00994679 0.0103677 0.011522 0.011991 0.0103677 0.010786 0.011991 0.0124566 0.010786 0.0112015 0.0124566 0.0129187 0.0112015 0.011614 0.0129187 0.0133772 0.011614 0.0120235 0.0133772 0.0138321 0.0120235 0.0124298 0.0138321 0.0142834 0.0124298 0.012833 0.0142834 0.014731 0.012833 0.013233 0.014731 0.0151749 0.013233 0.0136298 0.0151749 0.0156153 0.0136298 0.0140235 0.0156153 0.0160522 0.0140235 0.0144139 0.0160522 0.0164855 0.0144139 0.0148013 0.0164855 0.0169155 0.0148013 0.0151857 0.0169155 0.0173422 0.0151857 0.0155671 0.0173422 0.0177657 0.0155671 0.0159457 0.0177657 0.0181861 0.0159457 0.0163214 0.0181861 0.0186035 0.0163214 0.0166944 0.0186035 0.019018 0.0166944 0.0170648 0.019018 0.0194297 0.0170648 0.0174327 0.0194297 0.0198387 0.0174327 0.0177981 0.0198387 0.0202452 0.0177981 0.0181611 0.0202452 0.0206492 0.0181611 0.0185219 0.0206492 0.0210508 0.0185219 0.0188806 0.0210508 0.0214502 0.0188806 0.0192371 0.0214502 0.0218475 0.0192371 0.0195916 0.0218475 0.0222426 0.0195916 0.0199442 0.0222426 0.0226358 0.0199442 0.020295 0.0226358 0.023027 0.020295 0.0206439 0.023027 0.0234164 0.0206439 0.0209912 0.0234164 0.0238041 0.0209912 0.0213368 0.0238041 0.02419 0.0213368 0.0216808 0.02419 0.0245744 0.0216808 0.0220233 0.0245744 0.0249571 0.0220233 0.0223643 0.0249571 0.0253384 0.0223643 0.0227039 0.0253384 0.0257181 0.0227039 0.0230421 0.0257181 0.0260964 0.0230421 0.0233789 0.0260964 0.0264734 0.0233789 0.0237144 0.0264734 0.0268489 0.0237144 0.0240486 0.0268489 0.0272231 0.0240486 0.0243815 0.0272231 0.027596 0.0243815 0.0247132 0.027596 0.0279676 0.0247132 0.0250437 0.0279676 0.0283379 0.0250437 0.0253729 0.0283379 0.028707 0.0253729 0.025701 0.028707 0.0290748 0.025701 0.0260278 0.0290748 0.0294413 0.0260278 0.0263535 0.0294413 0.0298066 0.0263535 0.026678 0.0298066 0.0301707 0.026678 0.0270013 0.0301707 0.0305335 0.0270013 0.0273234 0.0305335 0.0308951 0.0273234 0.0276443 0.0308951 0.0312554 0.0276443 0.0279641 0.0312554 0.0316145 0.0279641 0.0282826 0.0316145 0.0319723 0.0282826 0.0286 0.0319723 0.0323288 0.0286 0.0289161 0.0323288 0.0326841 0.0289161 0.0292311 0.0326841 0.0330381 0.0292311 0.0295448 0.0330381 0.0333908 0.0295448 0.0298573 0.0333908 0.0337422 0.0298573 0.0301686 0.0337422 0.0340923 0.0301686 0.0304786 0.0340923 0.034441 0.0304786 0.0307873 0.034441 0.0347883 0.0307873 0.0310947 0.0347883 0.0351343 0.0310947 0.0314008 0.0351343 0.0354789 0.0314008 0.0317056 0.0354789 0.035822 0.0317056 0.032009 0.035822 0.0361636 0.032009 0.032311 0.0361636 0.0365037 0.032311 0.0326115 0.0365037 0.0368422 0.0326115 0.0329106 0.0368422 0.0371791 0.0329106 0.0332081 0.0371791 0.0375143 0.0332081 0.0335041 0.0375143 0.0378477 0.0335041 0.0337984 0.0378477 0.0381794 0.0337984 0.0340911 0.0381794 0.0385092 0.0340911 0.034382 0.0385092 0.038837 0.034382 0.0346712 0.038837 0.0391628 0.0346712 0.0349585 0.0391628 0.0394866 0.0349585 0.035244 0.0394866 0.0398084 0.035244 0.0355276 0.0398084 0.040128 0.0355276 0.0358092 0.040128 0.0404454 0.0358092 0.0360889 0.0404454 0.0407607 0.0360889 0.0363667 0.0407607 0.041074 0.0363667 0.0366426 0.041074 0.0413851 0.0366426 0.0369166 0.0413851 0.0416942 0.0369166 0.0371888 0.0416942 0.0420014 0.0371888 0.0374593 0.0420014 0.0423069 0.0374593 0.0377282 0.0423069 0.0426107 0.0377282 0.0379956 0.0426107 0.042913 0.0379956 0.0382618 0.042913 0.0432141 0.0382618 0.0385268 0.0432141 0.0435142 0.0385268 0.038791 0.0435142 0.0438135 0.038791 0.0390544 0.0438135 0.0441124 0.0390544 0.0393176 0.0441124 0.0444112 0.0393176 0.0395806 0.0444112 0.0447103 0.0395806 0.0398438 0.0447103 0.04501 0.0398438 0.0401076 0.04501 0.0453107 0.0401076 0.0403724 0.0453107 0.0456128 0.0403724 0.0406384 0.0456128 0.0459168 0.0406384 0.040906 0.0459168 0.0462232 0.040906 0.0411758 0.0462232 0.0465325 0.0411758 0.0414481 0.0465325 0.0468451 0.0414481 0.0417233 0.0468451 0.0471616 0.0417233 0.0420018 0.0471616 0.0474824 0.0420018 0.0422842 0.0474824 0.0478081 0.0422842 0.0425709 0.0478081 0.0481393 0.0425709 0.0428624 0.0481393 0.0484765 0.0428624 0.043159 0.0484765 0.0488201 0.043159 0.0434612 0.0488201 0.0491708 0.0434612 0.0437694 0.0491708 0.0495288 0.0437694 0.044084 0.0495288 0.0498948 0.044084 0.0444055 0.0498948 0.050269 0.0444055 0.044734 0.050269 0.0506518 0.044734 0.0450698 0.0506518 0.0510435 0.0450698 0.0454131 0.0510435 0.0514441 0.0454131 0.0457641 0.0514441 0.0518539 0.0457641 0.0461228 0.0518539 0.0522726 0.0461228 0.046489 0.0522726 0.0527002 0.046489 0.0468626 0.0527002 0.0531362 0.0468626 0.0472432 0.0531362 0.0535802 0.0472432 0.0476303 0.0535802 0.0540312 0.0476303 0.0480233 0.0540312 0.0544885 0.0480233 0.0484213 0.0544885 0.0549508 0.0484213 0.0488232 0.0549508 0.0554166 0.0488232 0.0492279 0.0554166 0.0558843 0.0492279 0.0496338 0.0558843 0.0563518 0.0496338 0.0500392 0.0563518 0.0568171 0.0500392 0.0504423 0.0568171 0.0572776 0.0504423 0.050841 0.0572776 0.0577308 0.050841 0.0512329 0.0577308 0.058174 0.0512329 0.0516158 0.058174 0.0586046 0.0516158 0.0519872 0.0586046 0.05902 0.0519872 0.0523446 0.05902 0.0594175 0.0523446 0.0526857 0.0594175 0.0597953 0.0526857 0.0530082 0.0597953 0.0601514 0.0530082 0.0533101 0.0601514 0.0604848 0.0533101 0.0535898 0.0604848 0.0607948 0.0535898 0.0538461 0.0607948 0.0610813 0.0538461 0.0540784 0.0610813 0.0613446 0.0540784 0.0542864 0.0613446 0.0615847 0.0542864 0.0544695 0.0615847 0.0618014 0.0544695 0.0546262 0.0618014 0.061994 0.0546262 0.054753 0.061994 0.0621615 0.054753 0.0548461 0.0621615 0.0623035 0.0548461 0.0549025 0.0623035 0.0624189 0.0549025 0.0549213 0.0624189 0.0625069 0.0549213 0.0548987 0.0625069 0.0625691 0.0548987 0.0548395 0.0625691 0.0625947 0.0548395 0.0547563 0.0625947 0.06257 0.0547563 0.0546193 0.06257 0.0625082 0.0546193 0.0544624 0.0625082 0.0624484 0.0544624 0.0543708 0.0624484 0.0624198 0.0543708 0.0543491 0.0624198 0.0624193 0.0543491 0.0543693 0 1.88904e-05 0 4.58445e-05 1.88904e-05 6.61189e-05 4.58445e-05 0.000121303 6.61189e-05 0.000134182 0.000121303 0.000216085 0.000134182 0.000234439 0.000216085 0.000329589 0.000234439 0.000369576 0.000329589 0.000465087 0.000369576 0.000539222 0.000465087 0.000624141 0.000539222 0.000741524 0.000624141 0.00080699 0.000741524 0.00097405 0.00080699 0.00101295 0.00097405 0.00123417 0.00101295 0.00124081 0.00123417 0.00151927 0.00124081 0.00148905 0.00151927 0.00182677 0.00148905 0.00175598 0.00182677 0.00215426 0.00175598 0.0020399 0.00215426 0.00249943 0.0020399 0.00233909 0.00249943 0.00286015 0.00233909 0.00265188 0.00286015 0.00323442 0.00265188 0.00297667 0.00323442 0.0036204 0.00297667 0.00331194 0.0036204 0.00401637 0.00331194 0.00365626 0.00401637 0.00442077 0.00365626 0.00400831 0.00442077 0.00483217 0.00400831 0.00436684 0.00483217 0.00524925 0.00436684 0.00473072 0.00524925 0.00567085 0.00473072 0.0050989 0.00567085 0.00609587 0.0050989 0.00547045 0.00609587 0.00652336 0.00547045 0.00584449 0.00652336 0.00695245 0.00584449 0.00622026 0.00695245 0.00738238 0.00622026 0.00659705 0.00738238 0.00781246 0.00659705 0.00697425 0.00781246 0.0082421 0.00697425 0.00735131 0.0082421 0.00867077 0.00735131 0.00772775 0.00867077 0.00909802 0.00772775 0.00810315 0.00909802 0.00952347 0.00810315 0.00847714 0.00952347 0.00994679 0.00847714 0.00884943 0.00994679 0.0103677 0.00884943 0.00921974 0.0103677 0.010786 0.00921974 0.00958786 0.010786 0.0112015 0.00958786 0.00995361 0.0112015 0.011614 0.00995361 0.0103169 0.011614 0.0120235 0.0103169 0.0106775 0.0120235 0.0124298 0.0106775 0.0110354 0.0124298 0.012833 0.0110354 0.0113906 0.012833 0.013233 0.0113906 0.011743 0.013233 0.0136298 0.011743 0.0120925 0.0136298 0.0140235 0.0120925 0.0124393 0.0140235 0.0144139 0.0124393 0.0127834 0.0144139 0.0148013 0.0127834 0.0131247 0.0148013 0.0151857 0.0131247 0.0134633 0.0151857 0.0155671 0.0134633 0.0137992 0.0155671 0.0159457 0.0137992 0.0141326 0.0159457 0.0163214 0.0141326 0.0144635 0.0163214 0.0166944 0.0144635 0.0147919 0.0166944 0.0170648 0.0147919 0.015118 0.0170648 0.0174327 0.015118 0.0154418 0.0174327 0.0177981 0.0154418 0.0157633 0.0177981 0.0181611 0.0157633 0.0160828 0.0181611 0.0185219 0.0160828 0.0164001 0.0185219 0.0188806 0.0164001 0.0167155 0.0188806 0.0192371 0.0167155 0.017029 0.0192371 0.0195916 0.017029 0.0173406 0.0195916 0.0199442 0.0173406 0.0176505 0.0199442 0.020295 0.0176505 0.0179586 0.020295 0.0206439 0.0179586 0.0182652 0.0206439 0.0209912 0.0182652 0.0185701 0.0209912 0.0213368 0.0185701 0.0188735 0.0213368 0.0216808 0.0188735 0.0191755 0.0216808 0.0220233 0.0191755 0.019476 0.0220233 0.0223643 0.019476 0.0197751 0.0223643 0.0227039 0.0197751 0.0200729 0.0227039 0.0230421 0.0200729 0.0203694 0.0230421 0.0233789 0.0203694 0.0206647 0.0233789 0.0237144 0.0206647 0.0209587 0.0237144 0.0240486 0.0209587 0.0212515 0.0240486 0.0243815 0.0212515 0.0215431 0.0243815 0.0247132 0.0215431 0.0218335 0.0247132 0.0250437 0.0218335 0.0221228 0.0250437 0.0253729 0.0221228 0.0224109 0.0253729 0.025701 0.0224109 0.0226979 0.025701 0.0260278 0.0226979 0.0229838 0.0260278 0.0263535 0.0229838 0.0232686 0.0263535 0.026678 0.0232686 0.0235522 0.026678 0.0270013 0.0235522 0.0238348 0.0270013 0.0273234 0.0238348 0.0241162 0.0273234 0.0276443 0.0241162 0.0243965 0.0276443 0.0279641 0.0243965 0.0246757 0.0279641 0.0282826 0.0246757 0.0249537 0.0282826 0.0286 0.0249537 0.0252307 0.0286 0.0289161 0.0252307 0.0255065 0.0289161 0.0292311 0.0255065 0.0257811 0.0292311 0.0295448 0.0257811 0.0260546 0.0295448 0.0298573 0.0260546 0.0263269 0.0298573 0.0301686 0.0263269 0.0265981 0.0301686 0.0304786 0.0265981 0.0268681 0.0304786 0.0307873 0.0268681 0.0271368 0.0307873 0.0310947 0.0271368 0.0274044 0.0310947 0.0314008 0.0274044 0.0276707 0.0314008 0.0317056 0.0276707 0.0279357 0.0317056 0.032009 0.0279357 0.0281995 0.032009 0.032311 0.0281995 0.0284619 0.032311 0.0326115 0.0284619 0.028723 0.0326115 0.0329106 0.028723 0.0289827 0.0329106 0.0332081 0.0289827 0.029241 0.0332081 0.0335041 0.029241 0.0294979 0.0335041 0.0337984 0.0294979 0.0297533 0.0337984 0.0340911 0.0297533 0.0300071 0.0340911 0.034382 0.0300071 0.0302593 0.034382 0.0346712 0.0302593 0.0305099 0.0346712 0.0349585 0.0305099 0.0307588 0.0349585 0.035244 0.0307588 0.031006 0.035244 0.0355276 0.031006 0.0312515 0.0355276 0.0358092 0.0312515 0.0314952 0.0358092 0.0360889 0.0314952 0.0317372 0.0360889 0.0363667 0.0317372 0.0319773 0.0363667 0.0366426 0.0319773 0.0322158 0.0366426 0.0369166 0.0322158 0.0324525 0.0369166 0.0371888 0.0324525 0.0326875 0.0371888 0.0374593 0.0326875 0.032921 0.0374593 0.0377282 0.032921 0.033153 0.0377282 0.0379956 0.033153 0.0333837 0.0379956 0.0382618 0.0333837 0.0336132 0.0382618 0.0385268 0.0336132 0.0338416 0.0385268 0.038791 0.0338416 0.0340692 0.038791 0.0390544 0.0340692 0.0342962 0.0390544 0.0393176 0.0342962 0.0345228 0.0393176 0.0395806 0.0345228 0.0347493 0.0395806 0.0398438 0.0347493 0.0349759 0.0398438 0.0401076 0.0349759 0.035203 0.0401076 0.0403724 0.035203 0.0354308 0.0403724 0.0406384 0.0354308 0.0356597 0.0406384 0.040906 0.0356597 0.03589 0.040906 0.0411758 0.03589 0.036122 0.0411758 0.0414481 0.036122 0.0363562 0.0414481 0.0417233 0.0363562 0.0365929 0.0417233 0.0420018 0.0365929 0.0368325 0.0420018 0.0422842 0.0368325 0.0370754 0.0422842 0.0425709 0.0370754 0.0373219 0.0425709 0.0428624 0.0373219 0.0375725 0.0428624 0.043159 0.0375725 0.0378275 0.043159