# vtk DataFile Version 3.0
#This file was generated by the deal.II library on 2021/2/10 at 1:21:21
ASCII
DATASET UNSTRUCTURED_GRID

POINTS 43200 double
0 -0.5 0
0.0166667 -0.5 0
0 -0.483333 0
0.0166667 -0.483333 0
0.0166667 -0.5 0
0.0333333 -0.5 0
0.0166667 -0.483333 0
0.0333333 -0.483333 0
0.0333333 -0.5 0
0.05 -0.5 0
0.0333333 -0.483333 0
0.05 -0.483333 0
0.05 -0.5 0
0.0666667 -0.5 0
0.05 -0.483333 0
0.0666667 -0.483333 0
0.0666667 -0.5 0
0.0833333 -0.5 0
0.0666667 -0.483333 0
0.0833333 -0.483333 0
0.0833333 -0.5 0
0.1 -0.5 0
0.0833333 -0.483333 0
0.1 -0.483333 0
0.1 -0.5 0
0.116667 -0.5 0
0.1 -0.483333 0
0.116667 -0.483333 0
0.116667 -0.5 0
0.133333 -0.5 0
0.116667 -0.483333 0
0.133333 -0.483333 0
0.133333 -0.5 0
0.15 -0.5 0
0.133333 -0.483333 0
0.15 -0.483333 0
0.15 -0.5 0
0.166667 -0.5 0
0.15 -0.483333 0
0.166667 -0.483333 0
0.166667 -0.5 0
0.183333 -0.5 0
0.166667 -0.483333 0
0.183333 -0.483333 0
0.183333 -0.5 0
0.2 -0.5 0
0.183333 -0.483333 0
0.2 -0.483333 0
0.2 -0.5 0
0.216667 -0.5 0
0.2 -0.483333 0
0.216667 -0.483333 0
0.216667 -0.5 0
0.233333 -0.5 0
0.216667 -0.483333 0
0.233333 -0.483333 0
0.233333 -0.5 0
0.25 -0.5 0
0.233333 -0.483333 0
0.25 -0.483333 0
0.25 -0.5 0
0.266667 -0.5 0
0.25 -0.483333 0
0.266667 -0.483333 0
0.266667 -0.5 0
0.283333 -0.5 0
0.266667 -0.483333 0
0.283333 -0.483333 0
0.283333 -0.5 0
0.3 -0.5 0
0.283333 -0.483333 0
0.3 -0.483333 0
0.3 -0.5 0
0.316667 -0.5 0
0.3 -0.483333 0
0.316667 -0.483333 0
0.316667 -0.5 0
0.333333 -0.5 0
0.316667 -0.483333 0
0.333333 -0.483333 0
0.333333 -0.5 0
0.35 -0.5 0
0.333333 -0.483333 0
0.35 -0.483333 0
0.35 -0.5 0
0.366667 -0.5 0
0.35 -0.483333 0
0.366667 -0.483333 0
0.366667 -0.5 0
0.383333 -0.5 0
0.366667 -0.483333 0
0.383333 -0.483333 0
0.383333 -0.5 0
0.4 -0.5 0
0.383333 -0.483333 0
0.4 -0.483333 0
0.4 -0.5 0
0.416667 -0.5 0
0.4 -0.483333 0
0.416667 -0.483333 0
0.416667 -0.5 0
0.433333 -0.5 0
0.416667 -0.483333 0
0.433333 -0.483333 0
0.433333 -0.5 0
0.45 -0.5 0
0.433333 -0.483333 0
0.45 -0.483333 0
0.45 -0.5 0
0.466667 -0.5 0
0.45 -0.483333 0
0.466667 -0.483333 0
0.466667 -0.5 0
0.483333 -0.5 0
0.466667 -0.483333 0
0.483333 -0.483333 0
0.483333 -0.5 0
0.5 -0.5 0
0.483333 -0.483333 0
0.5 -0.483333 0
0.5 -0.5 0
0.516667 -0.5 0
0.5 -0.483333 0
0.516667 -0.483333 0
0.516667 -0.5 0
0.533333 -0.5 0
0.516667 -0.483333 0
0.533333 -0.483333 0
0.533333 -0.5 0
0.55 -0.5 0
0.533333 -0.483333 0
0.55 -0.483333 0
0.55 -0.5 0
0.566667 -0.5 0
0.55 -0.483333 0
0.566667 -0.483333 0
0.566667 -0.5 0
0.583333 -0.5 0
0.566667 -0.483333 0
0.583333 -0.483333 0
0.583333 -0.5 0
0.6 -0.5 0
0.583333 -0.483333 0
0.6 -0.483333 0
0.6 -0.5 0
0.616667 -0.5 0
0.6 -0.483333 0
0.616667 -0.483333 0
0.616667 -0.5 0
0.633333 -0.5 0
0.616667 -0.483333 0
0.633333 -0.483333 0
0.633333 -0.5 0
0.65 -0.5 0
0.633333 -0.483333 0
0.65 -0.483333 0
0.65 -0.5 0
0.666667 -0.5 0
0.65 -0.483333 0
0.666667 -0.483333 0
0.666667 -0.5 0
0.683333 -0.5 0
0.666667 -0.483333 0
0.683333 -0.483333 0
0.683333 -0.5 0
0.7 -0.5 0
0.683333 -0.483333 0
0.7 -0.483333 0
0.7 -0.5 0
0.716667 -0.5 0
0.7 -0.483333 0
0.716667 -0.483333 0
0.716667 -0.5 0
0.733333 -0.5 0
0.716667 -0.483333 0
0.733333 -0.483333 0
0.733333 -0.5 0
0.75 -0.5 0
0.733333 -0.483333 0
0.75 -0.483333 0
0.75 -0.5 0
0.766667 -0.5 0
0.75 -0.483333 0
0.766667 -0.483333 0
0.766667 -0.5 0
0.783333 -0.5 0
0.766667 -0.483333 0
0.783333 -0.483333 0
0.783333 -0.5 0
0.8 -0.5 0
0.783333 -0.483333 0
0.8 -0.483333 0
0.8 -0.5 0
0.816667 -0.5 0
0.8 -0.483333 0
0.816667 -0.483333 0
0.816667 -0.5 0
0.833333 -0.5 0
0.816667 -0.483333 0
0.833333 -0.483333 0
0.833333 -0.5 0
0.85 -0.5 0
0.833333 -0.483333 0
0.85 -0.483333 0
0.85 -0.5 0
0.866667 -0.5 0
0.85 -0.483333 0
0.866667 -0.483333 0
0.866667 -0.5 0
0.883333 -0.5 0
0.866667 -0.483333 0
0.883333 -0.483333 0
0.883333 -0.5 0
0.9 -0.5 0
0.883333 -0.483333 0
0.9 -0.483333 0
0.9 -0.5 0
0.916667 -0.5 0
0.9 -0.483333 0
0.916667 -0.483333 0
0.916667 -0.5 0
0.933333 -0.5 0
0.916667 -0.483333 0
0.933333 -0.483333 0
0.933333 -0.5 0
0.95 -0.5 0
0.933333 -0.483333 0
0.95 -0.483333 0
0.95 -0.5 0
0.966667 -0.5 0
0.95 -0.483333 0
0.966667 -0.483333 0
0.966667 -0.5 0
0.983333 -0.5 0
0.966667 -0.483333 0
0.983333 -0.483333 0
0.983333 -0.5 0
1 -0.5 0
0.983333 -0.483333 0
1 -0.483333 0
1 -0.5 0
1.01667 -0.5 0
1 -0.483333 0
1.01667 -0.483333 0
1.01667 -0.5 0
1.03333 -0.5 0
1.01667 -0.483333 0
1.03333 -0.483333 0
1.03333 -0.5 0
1.05 -0.5 0
1.03333 -0.483333 0
1.05 -0.483333 0
1.05 -0.5 0
1.06667 -0.5 0
1.05 -0.483333 0
1.06667 -0.483333 0
1.06667 -0.5 0
1.08333 -0.5 0
1.06667 -0.483333 0
1.08333 -0.483333 0
1.08333 -0.5 0
1.1 -0.5 0
1.08333 -0.483333 0
1.1 -0.483333 0
1.1 -0.5 0
1.11667 -0.5 0
1.1 -0.483333 0
1.11667 -0.483333 0
1.11667 -0.5 0
1.13333 -0.5 0
1.11667 -0.483333 0
1.13333 -0.483333 0
1.13333 -0.5 0
1.15 -0.5 0
1.13333 -0.483333 0
1.15 -0.483333 0
1.15 -0.5 0
1.16667 -0.5 0
1.15 -0.483333 0
1.16667 -0.483333 0
1.16667 -0.5 0
1.18333 -0.5 0
1.16667 -0.483333 0
1.18333 -0.483333 0
1.18333 -0.5 0
1.2 -0.5 0
1.18333 -0.483333 0
1.2 -0.483333 0
1.2 -0.5 0
1.21667 -0.5 0
1.2 -0.483333 0
1.21667 -0.483333 0
1.21667 -0.5 0
1.23333 -0.5 0
1.21667 -0.483333 0
1.23333 -0.483333 0
1.23333 -0.5 0
1.25 -0.5 0
1.23333 -0.483333 0
1.25 -0.483333 0
1.25 -0.5 0
1.26667 -0.5 0
1.25 -0.483333 0
1.26667 -0.483333 0
1.26667 -0.5 0
1.28333 -0.5 0
1.26667 -0.483333 0
1.28333 -0.483333 0
1.28333 -0.5 0
1.3 -0.5 0
1.28333 -0.483333 0
1.3 -0.483333 0
1.3 -0.5 0
1.31667 -0.5 0
1.3 -0.483333 0
1.31667 -0.483333 0
1.31667 -0.5 0
1.33333 -0.5 0
1.31667 -0.483333 0
1.33333 -0.483333 0
1.33333 -0.5 0
1.35 -0.5 0
1.33333 -0.483333 0
1.35 -0.483333 0
1.35 -0.5 0
1.36667 -0.5 0
1.35 -0.483333 0
1.36667 -0.483333 0
1.36667 -0.5 0
1.38333 -0.5 0
1.36667 -0.483333 0
1.38333 -0.483333 0
1.38333 -0.5 0
1.4 -0.5 0
1.38333 -0.483333 0
1.4 -0.483333 0
1.4 -0.5 0
1.41667 -0.5 0
1.4 -0.483333 0
1.41667 -0.483333 0
1.41667 -0.5 0
1.43333 -0.5 0
1.41667 -0.483333 0
1.43333 -0.483333 0
1.43333 -0.5 0
1.45 -0.5 0
1.43333 -0.483333 0
1.45 -0.483333 0
1.45 -0.5 0
1.46667 -0.5 0
1.45 -0.483333 0
1.46667 -0.483333 0
1.46667 -0.5 0
1.48333 -0.5 0
1.46667 -0.483333 0
1.48333 -0.483333 0
1.48333 -0.5 0
1.5 -0.5 0
1.48333 -0.483333 0
1.5 -0.483333 0
1.5 -0.5 0
1.51667 -0.5 0
1.5 -0.483333 0
1.51667 -0.483333 0
1.51667 -0.5 0
1.53333 -0.5 0
1.51667 -0.483333 0
1.53333 -0.483333 0
1.53333 -0.5 0
1.55 -0.5 0
1.53333 -0.483333 0
1.55 -0.483333 0
1.55 -0.5 0
1.56667 -0.5 0
1.55 -0.483333 0
1.56667 -0.483333 0
1.56667 -0.5 0
1.58333 -0.5 0
1.56667 -0.483333 0
1.58333 -0.483333 0
1.58333 -0.5 0
1.6 -0.5 0
1.58333 -0.483333 0
1.6 -0.483333 0
1.6 -0.5 0
1.61667 -0.5 0
1.6 -0.483333 0
1.61667 -0.483333 0
1.61667 -0.5 0
1.63333 -0.5 0
1.61667 -0.483333 0
1.63333 -0.483333 0
1.63333 -0.5 0
1.65 -0.5 0
1.63333 -0.483333 0
1.65 -0.483333 0
1.65 -0.5 0
1.66667 -0.5 0
1.65 -0.483333 0
1.66667 -0.483333 0
1.66667 -0.5 0
1.68333 -0.5 0
1.66667 -0.483333 0
1.68333 -0.483333 0
1.68333 -0.5 0
1.7 -0.5 0
1.68333 -0.483333 0
1.7 -0.483333 0
1.7 -0.5 0
1.71667 -0.5 0
1.7 -0.483333 0
1.71667 -0.483333 0
1.71667 -0.5 0
1.73333 -0.5 0
1.71667 -0.483333 0
1.73333 -0.483333 0
1.73333 -0.5 0
1.75 -0.5 0
1.73333 -0.483333 0
1.75 -0.483333 0
1.75 -0.5 0
1.76667 -0.5 0
1.75 -0.483333 0
1.76667 -0.483333 0
1.76667 -0.5 0
1.78333 -0.5 0
1.76667 -0.483333 0
1.78333 -0.483333 0
1.78333 -0.5 0
1.8 -0.5 0
1.78333 -0.483333 0
1.8 -0.483333 0
1.8 -0.5 0
1.81667 -0.5 0
1.8 -0.483333 0
1.81667 -0.483333 0
1.81667 -0.5 0
1.83333 -0.5 0
1.81667 -0.483333 0
1.83333 -0.483333 0
1.83333 -0.5 0
1.85 -0.5 0
1.83333 -0.483333 0
1.85 -0.483333 0
1.85 -0.5 0
1.86667 -0.5 0
1.85 -0.483333 0
1.86667 -0.483333 0
1.86667 -0.5 0
1.88333 -0.5 0
1.86667 -0.483333 0
1.88333 -0.483333 0
1.88333 -0.5 0
1.9 -0.5 0
1.88333 -0.483333 0
1.9 -0.483333 0
1.9 -0.5 0
1.91667 -0.5 0
1.9 -0.483333 0
1.91667 -0.483333 0
1.91667 -0.5 0
1.93333 -0.5 0
1.91667 -0.483333 0
1.93333 -0.483333 0
1.93333 -0.5 0
1.95 -0.5 0
1.93333 -0.483333 0
1.95 -0.483333 0
1.95 -0.5 0
1.96667 -0.5 0
1.95 -0.483333 0
1.96667 -0.483333 0
1.96667 -0.5 0
1.98333 -0.5 0
1.96667 -0.483333 0
1.98333 -0.483333 0
1.98333 -0.5 0
2 -0.5 0
1.98333 -0.483333 0
2 -0.483333 0
2 -0.5 0
2.01667 -0.5 0
2 -0.483333 0
2.01667 -0.483333 0
2.01667 -0.5 0
2.03333 -0.5 0
2.01667 -0.483333 0
2.03333 -0.483333 0
2.03333 -0.5 0
2.05 -0.5 0
2.03333 -0.483333 0
2.05 -0.483333 0
2.05 -0.5 0
2.06667 -0.5 0
2.05 -0.483333 0
2.06667 -0.483333 0
2.06667 -0.5 0
2.08333 -0.5 0
2.06667 -0.483333 0
2.08333 -0.483333 0
2.08333 -0.5 0
2.1 -0.5 0
2.08333 -0.483333 0
2.1 -0.483333 0
2.1 -0.5 0
2.11667 -0.5 0
2.1 -0.483333 0
2.11667 -0.483333 0
2.11667 -0.5 0
2.13333 -0.5 0
2.11667 -0.483333 0
2.13333 -0.483333 0
2.13333 -0.5 0
2.15 -0.5 0
2.13333 -0.483333 0
2.15 -0.483333 0
2.15 -0.5 0
2.16667 -0.5 0
2.15 -0.483333 0
2.16667 -0.483333 0
2.16667 -0.5 0
2.18333 -0.5 0
2.16667 -0.483333 0
2.18333 -0.483333 0
2.18333 -0.5 0
2.2 -0.5 0
2.18333 -0.483333 0
2.2 -0.483333 0
2.2 -0.5 0
2.21667 -0.5 0
2.2 -0.483333 0
2.21667 -0.483333 0
2.21667 -0.5 0
2.23333 -0.5 0
2.21667 -0.483333 0
2.23333 -0.483333 0
2.23333 -0.5 0
2.25 -0.5 0
2.23333 -0.483333 0
2.25 -0.483333 0
2.25 -0.5 0
2.26667 -0.5 0
2.25 -0.483333 0
2.26667 -0.483333 0
2.26667 -0.5 0
2.28333 -0.5 0
2.26667 -0.483333 0
2.28333 -0.483333 0
2.28333 -0.5 0
2.3 -0.5 0
2.28333 -0.483333 0
2.3 -0.483333 0
2.3 -0.5 0
2.31667 -0.5 0
2.3 -0.483333 0
2.31667 -0.483333 0
2.31667 -0.5 0
2.33333 -0.5 0
2.31667 -0.483333 0
2.33333 -0.483333 0
2.33333 -0.5 0
2.35 -0.5 0
2.33333 -0.483333 0
2.35 -0.483333 0
2.35 -0.5 0
2.36667 -0.5 0
2.35 -0.483333 0
2.36667 -0.483333 0
2.36667 -0.5 0
2.38333 -0.5 0
2.36667 -0.483333 0
2.38333 -0.483333 0
2.38333 -0.5 0
2.4 -0.5 0
2.38333 -0.483333 0
2.4 -0.483333 0
2.4 -0.5 0
2.41667 -0.5 0
2.4 -0.483333 0
2.41667 -0.483333 0
2.41667 -0.5 0
2.43333 -0.5 0
2.41667 -0.483333 0
2.43333 -0.483333 0
2.43333 -0.5 0
2.45 -0.5 0
2.43333 -0.483333 0
2.45 -0.483333 0
2.45 -0.5 0
2.46667 -0.5 0
2.45 -0.483333 0
2.46667 -0.483333 0
2.46667 -0.5 0
[...]
POINT_DATA 43200
SCALARS x1_displacement double 1
LOOKUP_TABLE default
0 -0.000177679 0 -7.7629e-05 -0.000177679 -0.000291956 -7.7629e-05 -0.000165966 -0.000291956 -0.00036691 -0.000165966 -0.000234609 -0.00036691 -0.000416601 -0.000234609 -0.000283819 -0.000416601 -0.000445339 -0.000283819 -0.000315189 -0.000445339 -0.000455242 -0.000315189 -0.000329885 -0.000455242 -0.000447101 -0.000329885 -0.00032849 -0.000447101 -0.00042103 -0.00032849 -0.000311156 -0.00042103 -0.000376748 -0.000311156 -0.000277764 -0.000376748 -0.000313786 -0.000277764 -0.000228052 -0.000313786 -0.000231642 -0.000228052 -0.000161723 -0.000231642 -0.000129935 -0.000161723 -7.85484e-05 -0.000129935 -8.57449e-06 -7.85484e-05 2.15395e-05 -8.57449e-06 0.000132022 2.15395e-05 0.000138362 0.000132022 0.00029057 0.000138362 0.00027144 0.00029057 0.000464251 0.00027144 0.000420098 0.000464251 0.00064726 0.000420098 0.000584035 0.00064726 0.000828422 0.000584035 0.0007651 0.000828422 0.000988819 0.0007651 0.00095999 0.000988819 0.00111443 0.00095999 0.00115786 0.00111443 0.0015486 0.00115786 0.00151501 0.0015486 0.00199985 0.00151501 0.00189533 0.00199985 0.0025319 0.00189533 0.00226541 0.0025319 0.00307195 0.00226541 0.0027074 0.00307195 0.00368523 0.0027074 0.00323195 0.00368523 0.00437086 0.00323195 0.00381938 0.00437086 0.00511596 0.00381938 0.00443344 0.00511596 0.00590915 0.00443344 0.00509297 0.00590915 0.00674824 0.00509297 0.00578617 0.00674824 0.0076213 0.00578617 0.00649769 0.0076213 0.00852019 0.00649769 0.00721669 0.00852019 0.00943356 0.00721669 0.00794309 0.00943356 0.0103249 0.00794309 0.00866554 0.0103249 0.0111527 0.00866554 0.00932692 0.0111527 0.0117768 0.00932692 0.0099765 0.0117768 0.0122128 0.0099765 0.0104015 0.0122128 0.0125491 0.0104015 0.0106825 0.0125491 0.0128678 0.0106825 0.0109775 0.0128678 0.0132095 0.0109775 0.0112897 0.0132095 0.0135739 0.0112897 0.0116102 0.0135739 0.0139636 0.0116102 0.0119344 0.0139636 0.0143795 0.0119344 0.0122574 0.0143795 0.0149546 0.0122574 0.0126273 0.0149546 0.0151375 0.0126273 0.0128969 0.0151375 0.0153557 0.0128969 0.0131426 0.0153557 0.0156036 0.0131426 0.0133846 0.0156036 0.0158663 0.0133846 0.013624 0.0158663 0.016135 0.013624 0.0138628 0.016135 0.0164058 0.0138628 0.0141015 0.0164058 0.016677 0.0141015 0.0143399 0.016677 0.0169478 0.0143399 0.0145779 0.0169478 0.017218 0.0145779 0.0148157 0.017218 0.0174879 0.0148157 0.0150534 0.0174879 0.0177578 0.0150534 0.0152914 0.0177578 0.0180281 0.0152914 0.01553 0.0180281 0.0182992 0.01553 0.0157697 0.0182992 0.0185718 0.0157697 0.0160108 0.0185718 0.0188463 0.0160108 0.0162537 0.0188463 0.0191233 0.0162537 0.0164989 0.0191233 0.0194031 0.0164989 0.0167467 0.0194031 0.0196862 0.0167467 0.0169975 0.0196862 0.0199729 0.0169975 0.0172515 0.0199729 0.0202636 0.0172515 0.0175091 0.0202636 0.0205585 0.0175091 0.0177703 0.0205585 0.0208577 0.0177703 0.0180354 0.0208577 0.0211612 0.0180354 0.0183043 0.0211612 0.0214692 0.0183043 0.0185772 0.0214692 0.0217816 0.0185772 0.018854 0.0217816 0.0220983 0.018854 0.0191347 0.0220983 0.0224191 0.0191347 0.0194192 0.0224191 0.0227441 0.0194192 0.0197074 0.0227441 0.0230731 0.0197074 0.0199993 0.0230731 0.0234059 0.0199993 0.0202947 0.0234059 0.0237424 0.0202947 0.0205936 0.0237424 0.0240827 0.0205936 0.0208958 0.0240827 0.0244266 0.0208958 0.0212015 0.0244266 0.0247741 0.0212015 0.0215105 0.0247741 0.0251252 0.0215105 0.0218228 0.0251252 0.0254798 0.0218228 0.0221384 0.0254798 0.0258381 0.0221384 0.0224573 0.0258381 0.0261998 0.0224573 0.0227794 0.0261998 0.0265651 0.0227794 0.0231047 0.0265651 0.0269338 0.0231047 0.0234331 0.0269338 0.0273057 0.0234331 0.0237644 0.0273057 0.0276807 0.0237644 0.0240985 0.0276807 0.0280586 0.0240985 0.0244351 0.0280586 0.028439 0.0244351 0.0247741 0.028439 0.0288216 0.0247741 0.0251151 0.0288216 0.029206 0.0251151 0.0254579 0.029206 0.0295918 0.0254579 0.0258019 0.0295918 0.0299786 0.0258019 0.026147 0.0299786 0.0303659 0.026147 0.0264926 0.0303659 0.0307532 0.0264926 0.0268384 0.0307532 0.03114 0.0268384 0.027184 0.03114 0.0315259 0.027184 0.0275289 0.0315259 0.0319103 0.0275289 0.0278727 0.0319103 0.0322927 0.0278727 0.028215 0.0322927 0.0326728 0.028215 0.0285555 0.0326728 0.0330501 0.0285555 0.0288937 0.0330501 0.0334242 0.0288937 0.0292293 0.0334242 0.0337947 0.0292293 0.029562 0.0337947 0.0341614 0.029562 0.0298915 0.0341614 0.0345238 0.0298915 0.0302175 0.0345238 0.0348817 0.0302175 0.0305398 0.0348817 0.035235 0.0305398 0.0308581 0.035235 0.0355832 0.0308581 0.0311722 0.0355832 0.0359264 0.0311722 0.031482 0.0359264 0.0362643 0.031482 0.0317872 0.0362643 0.0365966 0.0317872 0.0320877 0.0365966 0.0369234 0.0320877 0.0323834 0.0369234 0.0372443 0.0323834 0.032674 0.0372443 0.0375593 0.032674 0.0329595 0.0375593 0.0378683 0.0329595 0.0332397 0.0378683 0.0381709 0.0332397 0.0335144 0.0381709 0.0384672 0.0335144 0.0337834 0.0384672 0.0387569 0.0337834 0.0340467 0.0387569 0.0390398 0.0340467 0.0343041 0.0390398 0.0393159 0.0343041 0.0345554 0.0393159 0.0395849 0.0345554 0.0348005 0.0395849 0.0398467 0.0348005 0.0350392 0.0398467 0.0401013 0.0350392 0.0352715 0.0401013 0.0403483 0.0352715 0.0354972 0.0403483 0.0405879 0.0354972 0.0357161 0.0405879 0.0408198 0.0357161 0.0359283 0.0408198 0.0410439 0.0359283 0.0361337 0.0410439 0.0412604 0.0361337 0.0363321 0.0412604 0.041469 0.0363321 0.0365236 0.041469 0.0416698 0.0365236 0.0367081 0.0416698 0.0418629 0.0367081 0.0368857 0.0418629 0.0420482 0.0368857 0.0370564 0.0420482 0.0422258 0.0370564 0.0372202 0.0422258 0.0423958 0.0372202 0.0373772 0.0423958 0.0425583 0.0373772 0.0375274 0.0425583 0.0427135 0.0375274 0.037671 0.0427135 0.0428613 0.037671 0.0378081 0.0428613 0.0430021 0.0378081 0.0379387 0.0430021 0.0431359 0.0379387 0.0380631 0.0431359 0.0432629 0.0380631 0.0381813 0.0432629 0.0433833 0.0381813 0.0382935 0.0433833 0.0434973 0.0382935 0.0383998 0.0434973 0.043605 0.0383998 0.0385005 0.043605 0.0437067 0.0385005 0.0385957 0.0437067 0.0438025 0.0385957 0.0386855 0.0438025 0.0438926 0.0386855 0.0387701 0.0438926 0.0439773 0.0387701 0.0388497 0.0439773 0.0440567 0.0388497 0.0389245 0.0440567 0.0441311 0.0389245 0.0389947 0.0441311 0.0442005 0.0389947 0.0390603 0.0442005 0.0442653 0.0390603 0.0391216 0.0442653 0.0443256 0.0391216 0.0391788 0.0443256 0.0443816 0.0391788 0.039232 0.0443816 0.0444334 0.039232 0.0392813 0.0444334 0.0444813 0.0392813 0.039327 0.0444813 0.0445254 0.039327 0.0393692 0.0445254 0.0445659 0.0393692 0.0394081 0.0445659 0.0446029 0.0394081 0.0394437 0.0446029 0.0446366 0.0394437 0.0394762 0.0446366 0.0446672 0.0394762 0.0395059 0.0446672 0.0446948 0.0395059 0.0395327 0.0446948 0.0447195 0.0395327 0.0395569 0.0447195 0.0447416 0.0395569 0.0395786 0.0447416 0.0447611 0.0395786 0.0395979 0.0447611 0.0447782 0.0395979 0.039615 0.0447782 0.044793 0.039615 0.03963 0.044793 0.0448057 0.03963 0.039643 0.0448057 0.0448164 0.039643 0.0396541 0.0448164 0.0448253 0.0396541 0.0396635 0.0448253 0.0448325 0.0396635 0.0396713 0.0448325 0.0448381 0.0396713 0.0396777 0.0448381 0.0448423 0.0396777 0.0396827 0.0448423 0.0448453 0.0396827 0.0396866 0.0448453 0.0448472 0.0396866 0.0396894 0.0448472 0.0448483 0.0396894 0.0396914 0.0448483 0.0448486 0.0396914 0.0396927 0.0448486 0.0448485 0.0396927 0.0396934 0.0448485 0.0448481 0.0396934 0.0396938 0.0448481 0.0448475 0.0396938 0.0396939 0.0448475 0.0448471 0.0396939 0.0396938 0.0448471 0.0448468 0.0396938 0.0396938 0.0448468 0.0448468 0.0396938 0.0396938 0 -7.7629e-05 0 -5.09397e-05 -7.7629e-05 -0.000165966 -5.09397e-05 -0.00010332 -0.000165966 -0.000234609 -0.00010332 -0.000154815 -0.000234609 -0.000283819 -0.000154815 -0.000196884 -0.000283819 -0.000315189 -0.000196884 -0.000227212 -0.000315189 -0.000329885 -0.000227212 -0.000244966 -0.000329885 -0.00032849 -0.000244966 -0.000249789 -0.00032849 -0.000311156 -0.000249789 -0.000241394 -0.000311156 -0.000277764 -0.000241394 -0.000219468 -0.000277764 -0.000228052 -0.000219468 -0.000183668 -0.000228052 -0.000161723 -0.000183668 -0.000133637 -0.000161723 -7.85484e-05 -0.000133637 -6.90367e-05 -7.85484e-05 2.15395e-05 -6.90367e-05 1.04509e-05 2.15395e-05 0.000138362 1.04509e-05 0.000105166 0.000138362 0.00027144 0.000105166 0.000215618 0.00027144 0.000420098 0.000215618 0.000342794 0.000420098 0.000584035 0.000342794 0.000488563 0.000584035 0.0007651 0.000488563 0.000654288 0.0007651 0.00095999 0.000654288 0.00083584 0.00095999 0.00115786 0.00083584 0.00102862 0.00115786 0.00151501 0.00102862 0.00126516 0.00151501 0.00189533 0.00126516 0.00154592 0.00189533 0.00226541 0.00154592 0.0018035 0.00226541 0.0027074 0.0018035 0.00217256 0.0027074 0.00323195 0.00217256 0.00268988 0.00323195 0.00381938 0.00268988 0.0031504 0.00381938 0.00443344 0.0031504 0.00364433 0.00443344 0.00509297 0.00364433 0.00419644 0.00509297 0.00578617 0.00419644 0.00478129 0.00578617 0.00649769 0.00478129 0.00534938 0.00649769 0.00721669 0.00534938 0.00591435 0.00721669 0.00794309 0.00591435 0.00649127 0.00794309 0.00866554 0.00649127 0.00711436 0.00866554 0.00932692 0.00711436 0.00776985 0.00932692 0.0099765 0.00776985 0.0082829 0.0099765 0.0104015 0.0082829 0.00856088 0.0104015 0.0106825 0.00856088 0.0088256 0.0106825 0.0109775 0.0088256 0.00910473 0.0109775 0.0112897 0.00910473 0.00938513 0.0112897 0.0116102 0.00938513 0.00966288 0.0116102 0.0119344 0.00966288 0.00993642 0.0119344 0.0122574 0.00993642 0.0102093 0.0122574 0.0126273 0.0102093 0.0104693 0.0126273 0.0128969 0.0104693 0.0107113 0.0128969 0.0131426 0.0107113 0.0109405 0.0131426 0.0133846 0.0109405 0.0111634 0.0133846 0.013624 0.0111634 0.0113789 0.013624 0.0138628 0.0113789 0.0115894 0.0138628 0.0141015 0.0115894 0.0117971 0.0141015 0.0143399 0.0117971 0.0120032 0.0143399 0.0145779 0.0120032 0.0122085 0.0145779 0.0148157 0.0122085 0.0124134 0.0148157 0.0150534 0.0124134 0.0126183 0.0150534 0.0152914 0.0126183 0.0128235 0.0152914 0.01553 0.0128235 0.0130295 0.01553 0.0157697 0.0130295 0.0132365 0.0157697 0.0160108 0.0132365 0.0134451 0.0160108 0.0162537 0.0134451 0.0136554 0.0162537 0.0164989 0.0136554 0.0138679 0.0164989 0.0167467 0.0138679 0.0140829 0.0167467 0.0169975 0.0140829 0.0143007 0.0169975 0.0172515 0.0143007 0.0145214 0.0172515 0.0175091 0.0145214 0.0147453 0.0175091 0.0177703 0.0147453 0.0149726 0.0177703 0.0180354 0.0149726 0.0152033 0.0180354 0.0183043 0.0152033 0.0154376 0.0183043 0.0185772 0.0154376 0.0156754 0.0185772 0.018854 0.0156754 0.0159168 0.018854 0.0191347 0.0159168 0.0161617 0.0191347 0.0194192 0.0161617 0.01641 0.0194192 0.0197074 0.01641 0.0166617 0.0197074 0.0199993 0.0166617 0.0169166 0.0199993 0.0202947 0.0169166 0.0171748 0.0202947 0.0205936 0.0171748 0.0174361 0.0205936 0.0208958 0.0174361 0.0177006 0.0208958 0.0212015 0.0177006 0.0179681 0.0212015 0.0215105 0.0179681 0.0182387 0.0215105 0.0218228 0.0182387 0.0185123 0.0218228 0.0221384 0.0185123 0.0187889 0.0221384 0.0224573 0.0187889 0.0190685 0.0224573 0.0227794 0.0190685 0.0193511 0.0227794 0.0231047 0.0193511 0.0196366 0.0231047 0.0234331 0.0196366 0.019925 0.0234331 0.0237644 0.019925 0.0202161 0.0237644 0.0240985 0.0202161 0.0205098 0.0240985 0.0244351 0.0205098 0.0208059 0.0244351 0.0247741 0.0208059 0.0211042 0.0247741 0.0251151 0.0211042 0.0214045 0.0251151 0.0254579 0.0214045 0.0217064 0.0254579 0.0258019 0.0217064 0.0220096 0.0258019 0.026147 0.0220096 0.0223139 0.026147 0.0264926 0.0223139 0.0226189 0.0264926 0.0268384 0.0226189 0.0229243 0.0268384 0.027184 0.0229243 0.0232296 0.027184 0.0275289 0.0232296 0.0235346 0.0275289 0.0278727 0.0235346 0.0238388 0.0278727 0.028215 0.0238388 0.0241419 0.028215 0.0285555 0.0241419 0.0244437 0.0285555 0.0288937 0.0244437 0.0247437 0.0288937 0.0292293 0.0247437 0.0250417 0.0292293 0.029562 0.0250417 0.0253373 0.029562 0.0298915 0.0253373 0.0256304 0.0298915 0.0302175 0.0256304 0.0259206 0.0302175 0.0305398 0.0259206 0.0262077 0.0305398 0.0308581 0.0262077 0.0264916 0.0308581 0.0311722 0.0264916 0.0267721 0.0311722 0.031482 0.0267721 0.0270489 0.031482 0.0317872 0.0270489 0.0273219 0.0317872 0.0320877 0.0273219 0.0275909 0.0320877 0.0323834 0.0275909 0.0278559 0.0323834 0.032674 0.0278559 0.0281166 0.032674 0.0329595 0.0281166 0.0283729 0.0329595 0.0332397 0.0283729 0.0286247 0.0332397 0.0335144 0.0286247 0.0288718 0.0335144 0.0337834 0.0288718 0.0291141 0.0337834 0.0340467 0.0291141 0.0293514 0.0340467 0.0343041 0.0293514 0.0295835 0.0343041 0.0345554 0.0295835 0.0298104 0.0345554 0.0348005 0.0298104 0.0300319 0.0348005 0.0350392 0.0300319 0.0302479 0.0350392 0.0352715 0.0302479 0.0304582 0.0352715 0.0354972 0.0304582 0.0306627 0.0354972 0.0357161 0.0306627 0.0308613 0.0357161 0.0359283 0.0308613 0.031054 0.0359283 0.0361337 0.031054 0.0312406 0.0361337 0.0363321 0.0312406 0.0314211 0.0363321 0.0365236 0.0314211 0.0315955 0.0365236 0.0367081 0.0315955 0.0317638 0.0367081 0.0368857 0.0317638 0.0319259 0.0368857 0.0370564 0.0319259 0.0320818 0.0370564 0.0372202 0.0320818 0.0322316 0.0372202 0.0373772 0.0322316 0.0323754 0.0373772 0.0375274 0.0323754 0.0325131 0.0375274 0.037671 0.0325131 0.0326449 0.037671 0.0378081 0.0326449 0.0327709 0.0378081 0.0379387 0.0327709 0.032891 0.0379387 0.0380631 0.032891 0.0330056 0.0380631 0.0381813 0.0330056 0.0331146 0.0381813 0.0382935 0.0331146 0.0332182 0.0382935 0.0383998 0.0332182 0.0333166 0.0383998 0.0385005 0.0333166 0.0334098 0.0385005 0.0385957 0.0334098 0.033498 0.0385957 0.0386855 0.033498 0.0335814 0.0386855 0.0387701 0.0335814 0.0336601 0.0387701 0.0388497 0.0336601 0.0337342 0.0388497 0.0389245 0.0337342 0.0338039 0.0389245 0.0389947 0.0338039 0.0338694 0.0389947 0.0390603 0.0338694 0.0339308 0.0390603 0.0391216 0.0339308 0.0339883 0.0391216 0.0391788 0.0339883 0.0340419 0.0391788 0.039232 0.0340419 0.0340919 0.039232 0.0392813 0.0340919 0.0341384 0.0392813 0.039327 0.0341384 0.0341815 0.039327 0.0393692 0.0341815 0.0342214 0.0393692 0.0394081 0.0342214 0.0342582 0.0394081 0.0394437 0.0342582 0.0342921 0.0394437 0.0394762 0.0342921 0.0343231 0.0394762 0.0395059 0.0343231 0.0343515 0.0395059 0.0395327 0.0343515 0.0343772 0.0395327 0.0395569 0.0343772 0.0344006 0.0395569 0.0395786 0.0344006 0.0344216 0.0395786 0.0395979 0.0344216 0.0344404 0.0395979 0.039615 0.0344404 0.0344571 0.039615 0.03963 0.0344571 0.0344719 0.03963 0.039643 0.0344719 0.0344848 0.039643 0.0396541 0.0344848 0.034496 0.0396541 0.0396635 0.034496 0.0345056 0.0396635 0.0396713 0.0345056 0.0345137 0.0396713 0.0396777 0.0345137 0.0345205 0.0396777 0.0396827 0.0345205 0.034526 0.0396827 0.0396866 0.034526 0.0345304 0.0396866 0.0396894 0.0345304 0.0345338 0.0396894 0.0396914 0.0345338 0.0345364 0.0396914 0.0396927 0.0345364 0.0345382 0.0396927 0.0396934 0.0345382 0.0345394 0.0396934 0.0396938 0.0345394 0.0345401 0.0396938 0.0396939 0.0345401 0.0345405 0.0396939 0.0396938 0.0345405 0.0345407 0.0396938 0.0396938 0.0345407 0.0345407 0.0396938 0.0396938 0.0345407 0.0345408 0 -5.09397e-05 0 -3.70963e-05 -5.09397e-05 -0.00010332 -3.70963e-05 -7.42131e-05 -0.00010332 -0.000154815 -7.42131e-05 -0.000111502 -0.000154815 -0.000196884 -0.000111502 -0.000146033 -0.000196884 -0.000227212 -0.000146033 -0.000174349 -0.000227212 -0.000244966 -0.000174349 -0.000194516 -0.000244966 -0.000249789 -0.000194516 -0.00020534 -0.000249789 -0.000241394 -0.00020534 -0.000206009 -0.000241394 -0.000219468 -0.000206009 -0.000195878 -0.000219468 -0.000183668 -0.000195878 -0.000174378 -0.000183668 -0.000133637 -0.000174378 -0.000140966 -0.000133637 -6.90367e-05 -0.000140966 -9.50985e-05 -6.90367e-05 1.04509e-05 -9.50985e-05 -3.61854e-05 1.04509e-05 0.000105166 -3.61854e-05 3.64817e-05 0.000105166 0.000215618 3.64817e-05 0.00012384 0.000215618 0.000342794 0.00012384 0.000227105 0.000342794 0.000488563 0.000227105 0.000347308 0.000488563 0.000654288 0.000347308 0.000483765 0.000654288 0.00083584 0.000483765 0.000634172 0.00083584 0.00102862 0.000634172 0.000798539 0.00102862 0.00126516 0.000798539 0.000987909 0.00126516 0.00154592 0.000987909 0.00120794 0.00154592 0.0018035 0.00120794 0.00143948 0.0018035 0.00217256 0.00143948 0.00170907 0.00217256 0.00268988 0.00170907 0.00203187 0.00268988 0.0031504 0.00203187 0.00233234 0.0031504 0.00364433 0.00233234 0.00274932 0.00364433 0.00419644 0.00274932 0.00329677 0.00419644 0.00478129 0.00329677 0.00376048 0.00478129 0.00534938 0.00376048 0.00420148 0.00534938 0.00591435 0.00420148 0.00463675 0.00591435 0.00649127 0.00463675 0.00507954 0.00649127 0.00711436 0.00507954 0.00555903 0.00711436 0.00776985 0.00555903 0.00621312 0.00776985 0.0082829 0.00621312 0.00651031 0.0082829 0.00856088 0.00651031 0.00675426 0.00856088 0.0088256 0.00675426 0.00700239 0.0088256 0.00910473 0.00700239 0.00724916 0.00910473 0.00938513 0.00724916 0.00749045 0.00938513 0.00966288 0.00749045 0.00772382 0.00966288 0.00993642 0.00772382 0.00794976 0.00993642 0.0102093 0.00794976 0.00816691 0.0102093 0.0104693 0.00816691 0.00837381 0.0104693 0.0107113 0.00837381 0.00857229 0.0107113 0.0109405 0.00857229 0.00876648 0.0109405 0.0111634 0.00876648 0.00895587 0.0111634 0.0113789 0.00895587 0.00913988 0.0113789 0.0115894 0.00913988 0.00931885 0.0115894 0.0117971 0.00931885 0.00949422 0.0117971 0.0120032 0.00949422 0.00966734 0.0120032 0.0122085 0.00966734 0.00983921 0.0122085 0.0124134 0.00983921 0.0100105 0.0124134 0.0126183 0.0100105 0.0101818 0.0126183 0.0128235 0.0101818 0.0103536 0.0128235 0.0130295 0.0103536 0.0105261 0.0130295 0.0132365 0.0105261 0.0106998 0.0132365 0.0134451 0.0106998 0.0108749 0.0134451 0.0136554 0.0108749 0.0110519 0.0136554 0.0138679 0.0110519 0.011231 0.0138679 0.0140829 0.011231 0.0114125 0.0140829 0.0143007 0.0114125 0.0115966 0.0143007 0.0145214 0.0115966 0.0117835 0.0145214 0.0147453 0.0117835 0.0119735 0.0147453 0.0149726 0.0119735 0.0121665 0.0149726 0.0152033 0.0121665 0.0123627 0.0152033 0.0154376 0.0123627 0.0125622 0.0154376 0.0156754 0.0125622 0.012765 0.0156754 0.0159168 0.012765 0.012971 0.0159168 0.0161617 0.012971 0.0131801 0.0161617 0.01641 0.0131801 0.0133924 0.01641 0.0166617 0.0133924 0.0136077 0.0166617 0.0169166 0.0136077 0.0138259 0.0169166 0.0171748 0.0138259 0.014047 0.0171748 0.0174361 0.014047 0.0142709 0.0174361 0.0177006 0.0142709 0.0144976 0.0177006 0.0179681 0.0144976 0.0147271 0.0179681 0.0182387 0.0147271 0.0149593 0.0182387 0.0185123 0.0149593 0.0151942 0.0185123 0.0187889 0.0151942 0.0154319 0.0187889 0.0190685 0.0154319 0.0156724 0.0190685 0.0193511 0.0156724 0.0159157 0.0193511 0.0196366 0.0159157 0.0161616 0.0196366 0.019925 0.0161616 0.0164103 0.019925 0.0202161 0.0164103 0.0166616 0.0202161 0.0205098 0.0166616 0.0169153 0.0205098 0.0208059 0.0169153 0.0171714 0.0208059 0.0211042 0.0171714 0.0174296 0.0211042 0.0214045 0.0174296 0.0176897 0.0214045 0.0217064 0.0176897 0.0179516 0.0217064 0.0220096 0.0179516 0.0182148 0.0220096 0.0223139 0.0182148 0.0184792 0.0223139 0.0226189 0.0184792 0.0187444 0.0226189 0.0229243 0.0187444 0.0190101 0.0229243 0.0232296 0.0190101 0.0192761 0.0232296 0.0235346 0.0192761 0.019542 0.0235346 0.0238388 0.019542 0.0198075 0.0238388 0.0241419 0.0198075 0.0200723 0.0241419 0.0244437 0.0200723 0.0203361 0.0244437 0.0247437 0.0203361 0.0205987 0.0247437 0.0250417 0.0205987 0.0208597 0.0250417 0.0253373 0.0208597 0.0211189 0.0253373 0.0256304 0.0211189 0.0213762 0.0256304 0.0259206 0.0213762 0.0216312 0.0259206 0.0262077 0.0216312 0.0218837 0.0262077 0.0264916 0.0218837 0.0221337 0.0264916 0.0267721 0.0221337 0.0223809 0.0267721 0.0270489 0.0223809 0.0226251 0.0270489 0.0273219 0.0226251 0.0228663 0.0273219 0.0275909 0.0228663 0.0231043 0.0275909 0.0278559 0.0231043 0.023339 0.0278559 0.0281166 0.023339 0.0235701 0.0281166 0.0283729 0.0235701 0.0237977 0.0283729 0.0286247 0.0237977 0.0240215 0.0286247 0.0288718 0.0240215 0.0242413 0.0288718 0.0291141 0.0242413 0.0244572 0.0291141 0.0293514 0.0244572 0.0246688 0.0293514 0.0295835 0.0246688 0.0248761 0.0295835 0.0298104 0.0248761 0.0250789 0.0298104 0.0300319 0.0250789 0.0252771 0.0300319 0.0302479 0.0252771 0.0254706 0.0302479 0.0304582 0.0254706 0.0256592 0.0304582 0.0306627 0.0256592 0.0258428 0.0306627 0.0308613 0.0258428 0.0260213 0.030