# vtk DataFile Version 3.0
#This file was generated by the deal.II library on 2021/2/10 at 1:27:07
ASCII
DATASET UNSTRUCTURED_GRID

POINTS 43200 double
0 -0.5 0
0.0166667 -0.5 0
0 -0.483333 0
0.0166667 -0.483333 0
0.0166667 -0.5 0
0.0333333 -0.5 0
0.0166667 -0.483333 0
0.0333333 -0.483333 0
0.0333333 -0.5 0
0.05 -0.5 0
0.0333333 -0.483333 0
0.05 -0.483333 0
0.05 -0.5 0
0.0666667 -0.5 0
0.05 -0.483333 0
0.0666667 -0.483333 0
0.0666667 -0.5 0
0.0833333 -0.5 0
0.0666667 -0.483333 0
0.0833333 -0.483333 0
0.0833333 -0.5 0
0.1 -0.5 0
0.0833333 -0.483333 0
0.1 -0.483333 0
0.1 -0.5 0
0.116667 -0.5 0
0.1 -0.483333 0
0.116667 -0.483333 0
0.116667 -0.5 0
0.133333 -0.5 0
0.116667 -0.483333 0
0.133333 -0.483333 0
0.133333 -0.5 0
0.15 -0.5 0
0.133333 -0.483333 0
0.15 -0.483333 0
0.15 -0.5 0
0.166667 -0.5 0
0.15 -0.483333 0
0.166667 -0.483333 0
0.166667 -0.5 0
0.183333 -0.5 0
0.166667 -0.483333 0
0.183333 -0.483333 0
0.183333 -0.5 0
0.2 -0.5 0
0.183333 -0.483333 0
0.2 -0.483333 0
0.2 -0.5 0
0.216667 -0.5 0
0.2 -0.483333 0
0.216667 -0.483333 0
0.216667 -0.5 0
0.233333 -0.5 0
0.216667 -0.483333 0
0.233333 -0.483333 0
0.233333 -0.5 0
0.25 -0.5 0
0.233333 -0.483333 0
0.25 -0.483333 0
0.25 -0.5 0
0.266667 -0.5 0
0.25 -0.483333 0
0.266667 -0.483333 0
0.266667 -0.5 0
0.283333 -0.5 0
0.266667 -0.483333 0
0.283333 -0.483333 0
0.283333 -0.5 0
0.3 -0.5 0
0.283333 -0.483333 0
0.3 -0.483333 0
0.3 -0.5 0
0.316667 -0.5 0
0.3 -0.483333 0
0.316667 -0.483333 0
0.316667 -0.5 0
0.333333 -0.5 0
0.316667 -0.483333 0
0.333333 -0.483333 0
0.333333 -0.5 0
0.35 -0.5 0
0.333333 -0.483333 0
0.35 -0.483333 0
0.35 -0.5 0
0.366667 -0.5 0
0.35 -0.483333 0
0.366667 -0.483333 0
0.366667 -0.5 0
0.383333 -0.5 0
0.366667 -0.483333 0
0.383333 -0.483333 0
0.383333 -0.5 0
0.4 -0.5 0
0.383333 -0.483333 0
0.4 -0.483333 0
0.4 -0.5 0
0.416667 -0.5 0
0.4 -0.483333 0
0.416667 -0.483333 0
0.416667 -0.5 0
0.433333 -0.5 0
0.416667 -0.483333 0
0.433333 -0.483333 0
0.433333 -0.5 0
0.45 -0.5 0
0.433333 -0.483333 0
0.45 -0.483333 0
0.45 -0.5 0
0.466667 -0.5 0
0.45 -0.483333 0
0.466667 -0.483333 0
0.466667 -0.5 0
0.483333 -0.5 0
0.466667 -0.483333 0
0.483333 -0.483333 0
0.483333 -0.5 0
0.5 -0.5 0
0.483333 -0.483333 0
0.5 -0.483333 0
0.5 -0.5 0
0.516667 -0.5 0
0.5 -0.483333 0
0.516667 -0.483333 0
0.516667 -0.5 0
0.533333 -0.5 0
0.516667 -0.483333 0
0.533333 -0.483333 0
0.533333 -0.5 0
0.55 -0.5 0
0.533333 -0.483333 0
0.55 -0.483333 0
0.55 -0.5 0
0.566667 -0.5 0
0.55 -0.483333 0
0.566667 -0.483333 0
0.566667 -0.5 0
0.583333 -0.5 0
0.566667 -0.483333 0
0.583333 -0.483333 0
0.583333 -0.5 0
0.6 -0.5 0
0.583333 -0.483333 0
0.6 -0.483333 0
0.6 -0.5 0
0.616667 -0.5 0
0.6 -0.483333 0
0.616667 -0.483333 0
0.616667 -0.5 0
0.633333 -0.5 0
0.616667 -0.483333 0
0.633333 -0.483333 0
0.633333 -0.5 0
0.65 -0.5 0
0.633333 -0.483333 0
0.65 -0.483333 0
0.65 -0.5 0
0.666667 -0.5 0
0.65 -0.483333 0
0.666667 -0.483333 0
0.666667 -0.5 0
0.683333 -0.5 0
0.666667 -0.483333 0
0.683333 -0.483333 0
0.683333 -0.5 0
0.7 -0.5 0
0.683333 -0.483333 0
0.7 -0.483333 0
0.7 -0.5 0
0.716667 -0.5 0
0.7 -0.483333 0
0.716667 -0.483333 0
0.716667 -0.5 0
0.733333 -0.5 0
0.716667 -0.483333 0
0.733333 -0.483333 0
0.733333 -0.5 0
0.75 -0.5 0
0.733333 -0.483333 0
0.75 -0.483333 0
0.75 -0.5 0
0.766667 -0.5 0
0.75 -0.483333 0
0.766667 -0.483333 0
0.766667 -0.5 0
0.783333 -0.5 0
0.766667 -0.483333 0
0.783333 -0.483333 0
0.783333 -0.5 0
0.8 -0.5 0
0.783333 -0.483333 0
0.8 -0.483333 0
0.8 -0.5 0
0.816667 -0.5 0
0.8 -0.483333 0
0.816667 -0.483333 0
0.816667 -0.5 0
0.833333 -0.5 0
0.816667 -0.483333 0
0.833333 -0.483333 0
0.833333 -0.5 0
0.85 -0.5 0
0.833333 -0.483333 0
0.85 -0.483333 0
0.85 -0.5 0
0.866667 -0.5 0
0.85 -0.483333 0
0.866667 -0.483333 0
0.866667 -0.5 0
0.883333 -0.5 0
0.866667 -0.483333 0
0.883333 -0.483333 0
0.883333 -0.5 0
0.9 -0.5 0
0.883333 -0.483333 0
0.9 -0.483333 0
0.9 -0.5 0
0.916667 -0.5 0
0.9 -0.483333 0
0.916667 -0.483333 0
0.916667 -0.5 0
0.933333 -0.5 0
0.916667 -0.483333 0
0.933333 -0.483333 0
0.933333 -0.5 0
0.95 -0.5 0
0.933333 -0.483333 0
0.95 -0.483333 0
0.95 -0.5 0
0.966667 -0.5 0
0.95 -0.483333 0
0.966667 -0.483333 0
0.966667 -0.5 0
0.983333 -0.5 0
0.966667 -0.483333 0
0.983333 -0.483333 0
0.983333 -0.5 0
1 -0.5 0
0.983333 -0.483333 0
1 -0.483333 0
1 -0.5 0
1.01667 -0.5 0
1 -0.483333 0
1.01667 -0.483333 0
1.01667 -0.5 0
1.03333 -0.5 0
1.01667 -0.483333 0
1.03333 -0.483333 0
1.03333 -0.5 0
1.05 -0.5 0
1.03333 -0.483333 0
1.05 -0.483333 0
1.05 -0.5 0
1.06667 -0.5 0
1.05 -0.483333 0
1.06667 -0.483333 0
1.06667 -0.5 0
1.08333 -0.5 0
1.06667 -0.483333 0
1.08333 -0.483333 0
1.08333 -0.5 0
1.1 -0.5 0
1.08333 -0.483333 0
1.1 -0.483333 0
1.1 -0.5 0
1.11667 -0.5 0
1.1 -0.483333 0
1.11667 -0.483333 0
1.11667 -0.5 0
1.13333 -0.5 0
1.11667 -0.483333 0
1.13333 -0.483333 0
1.13333 -0.5 0
1.15 -0.5 0
1.13333 -0.483333 0
1.15 -0.483333 0
1.15 -0.5 0
1.16667 -0.5 0
1.15 -0.483333 0
1.16667 -0.483333 0
1.16667 -0.5 0
1.18333 -0.5 0
1.16667 -0.483333 0
1.18333 -0.483333 0
1.18333 -0.5 0
1.2 -0.5 0
1.18333 -0.483333 0
1.2 -0.483333 0
1.2 -0.5 0
1.21667 -0.5 0
1.2 -0.483333 0
1.21667 -0.483333 0
1.21667 -0.5 0
1.23333 -0.5 0
1.21667 -0.483333 0
1.23333 -0.483333 0
1.23333 -0.5 0
1.25 -0.5 0
1.23333 -0.483333 0
1.25 -0.483333 0
1.25 -0.5 0
1.26667 -0.5 0
1.25 -0.483333 0
1.26667 -0.483333 0
1.26667 -0.5 0
1.28333 -0.5 0
1.26667 -0.483333 0
1.28333 -0.483333 0
1.28333 -0.5 0
1.3 -0.5 0
1.28333 -0.483333 0
1.3 -0.483333 0
1.3 -0.5 0
1.31667 -0.5 0
1.3 -0.483333 0
1.31667 -0.483333 0
1.31667 -0.5 0
1.33333 -0.5 0
1.31667 -0.483333 0
1.33333 -0.483333 0
1.33333 -0.5 0
1.35 -0.5 0
1.33333 -0.483333 0
1.35 -0.483333 0
1.35 -0.5 0
1.36667 -0.5 0
1.35 -0.483333 0
1.36667 -0.483333 0
1.36667 -0.5 0
1.38333 -0.5 0
1.36667 -0.483333 0
1.38333 -0.483333 0
1.38333 -0.5 0
1.4 -0.5 0
1.38333 -0.483333 0
1.4 -0.483333 0
1.4 -0.5 0
1.41667 -0.5 0
1.4 -0.483333 0
1.41667 -0.483333 0
1.41667 -0.5 0
1.43333 -0.5 0
1.41667 -0.483333 0
1.43333 -0.483333 0
1.43333 -0.5 0
1.45 -0.5 0
1.43333 -0.483333 0
1.45 -0.483333 0
1.45 -0.5 0
1.46667 -0.5 0
1.45 -0.483333 0
1.46667 -0.483333 0
1.46667 -0.5 0
1.48333 -0.5 0
1.46667 -0.483333 0
1.48333 -0.483333 0
1.48333 -0.5 0
1.5 -0.5 0
1.48333 -0.483333 0
1.5 -0.483333 0
1.5 -0.5 0
1.51667 -0.5 0
1.5 -0.483333 0
1.51667 -0.483333 0
1.51667 -0.5 0
1.53333 -0.5 0
1.51667 -0.483333 0
1.53333 -0.483333 0
1.53333 -0.5 0
1.55 -0.5 0
1.53333 -0.483333 0
1.55 -0.483333 0
1.55 -0.5 0
1.56667 -0.5 0
1.55 -0.483333 0
1.56667 -0.483333 0
1.56667 -0.5 0
1.58333 -0.5 0
1.56667 -0.483333 0
1.58333 -0.483333 0
1.58333 -0.5 0
1.6 -0.5 0
1.58333 -0.483333 0
1.6 -0.483333 0
1.6 -0.5 0
1.61667 -0.5 0
1.6 -0.483333 0
1.61667 -0.483333 0
1.61667 -0.5 0
1.63333 -0.5 0
1.61667 -0.483333 0
1.63333 -0.483333 0
1.63333 -0.5 0
1.65 -0.5 0
1.63333 -0.483333 0
1.65 -0.483333 0
1.65 -0.5 0
1.66667 -0.5 0
1.65 -0.483333 0
1.66667 -0.483333 0
1.66667 -0.5 0
1.68333 -0.5 0
1.66667 -0.483333 0
1.68333 -0.483333 0
1.68333 -0.5 0
1.7 -0.5 0
1.68333 -0.483333 0
1.7 -0.483333 0
1.7 -0.5 0
1.71667 -0.5 0
1.7 -0.483333 0
1.71667 -0.483333 0
1.71667 -0.5 0
1.73333 -0.5 0
1.71667 -0.483333 0
1.73333 -0.483333 0
1.73333 -0.5 0
1.75 -0.5 0
1.73333 -0.483333 0
1.75 -0.483333 0
1.75 -0.5 0
1.76667 -0.5 0
1.75 -0.483333 0
1.76667 -0.483333 0
1.76667 -0.5 0
1.78333 -0.5 0
1.76667 -0.483333 0
1.78333 -0.483333 0
1.78333 -0.5 0
1.8 -0.5 0
1.78333 -0.483333 0
1.8 -0.483333 0
1.8 -0.5 0
1.81667 -0.5 0
1.8 -0.483333 0
1.81667 -0.483333 0
1.81667 -0.5 0
1.83333 -0.5 0
1.81667 -0.483333 0
1.83333 -0.483333 0
1.83333 -0.5 0
1.85 -0.5 0
1.83333 -0.483333 0
1.85 -0.483333 0
1.85 -0.5 0
1.86667 -0.5 0
1.85 -0.483333 0
1.86667 -0.483333 0
1.86667 -0.5 0
1.88333 -0.5 0
1.86667 -0.483333 0
1.88333 -0.483333 0
1.88333 -0.5 0
1.9 -0.5 0
1.88333 -0.483333 0
1.9 -0.483333 0
1.9 -0.5 0
1.91667 -0.5 0
1.9 -0.483333 0
1.91667 -0.483333 0
1.91667 -0.5 0
1.93333 -0.5 0
1.91667 -0.483333 0
1.93333 -0.483333 0
1.93333 -0.5 0
1.95 -0.5 0
1.93333 -0.483333 0
1.95 -0.483333 0
1.95 -0.5 0
1.96667 -0.5 0
1.95 -0.483333 0
1.96667 -0.483333 0
1.96667 -0.5 0
1.98333 -0.5 0
1.96667 -0.483333 0
1.98333 -0.483333 0
1.98333 -0.5 0
2 -0.5 0
1.98333 -0.483333 0
2 -0.483333 0
2 -0.5 0
2.01667 -0.5 0
2 -0.483333 0
2.01667 -0.483333 0
2.01667 -0.5 0
2.03333 -0.5 0
2.01667 -0.483333 0
2.03333 -0.483333 0
2.03333 -0.5 0
2.05 -0.5 0
2.03333 -0.483333 0
2.05 -0.483333 0
2.05 -0.5 0
2.06667 -0.5 0
2.05 -0.483333 0
2.06667 -0.483333 0
2.06667 -0.5 0
2.08333 -0.5 0
2.06667 -0.483333 0
2.08333 -0.483333 0
2.08333 -0.5 0
2.1 -0.5 0
2.08333 -0.483333 0
2.1 -0.483333 0
2.1 -0.5 0
2.11667 -0.5 0
2.1 -0.483333 0
2.11667 -0.483333 0
2.11667 -0.5 0
2.13333 -0.5 0
2.11667 -0.483333 0
2.13333 -0.483333 0
2.13333 -0.5 0
2.15 -0.5 0
2.13333 -0.483333 0
2.15 -0.483333 0
2.15 -0.5 0
2.16667 -0.5 0
2.15 -0.483333 0
2.16667 -0.483333 0
2.16667 -0.5 0
2.18333 -0.5 0
2.16667 -0.483333 0
2.18333 -0.483333 0
2.18333 -0.5 0
2.2 -0.5 0
2.18333 -0.483333 0
2.2 -0.483333 0
2.2 -0.5 0
2.21667 -0.5 0
2.2 -0.483333 0
2.21667 -0.483333 0
2.21667 -0.5 0
2.23333 -0.5 0
2.21667 -0.483333 0
2.23333 -0.483333 0
2.23333 -0.5 0
2.25 -0.5 0
2.23333 -0.483333 0
2.25 -0.483333 0
2.25 -0.5 0
2.26667 -0.5 0
2.25 -0.483333 0
2.26667 -0.483333 0
2.26667 -0.5 0
2.28333 -0.5 0
2.26667 -0.483333 0
2.28333 -0.483333 0
2.28333 -0.5 0
2.3 -0.5 0
2.28333 -0.483333 0
2.3 -0.483333 0
2.3 -0.5 0
2.31667 -0.5 0
2.3 -0.483333 0
2.31667 -0.483333 0
2.31667 -0.5 0
2.33333 -0.5 0
2.31667 -0.483333 0
2.33333 -0.483333 0
2.33333 -0.5 0
2.35 -0.5 0
2.33333 -0.483333 0
2.35 -0.483333 0
2.35 -0.5 0
2.36667 -0.5 0
2.35 -0.483333 0
2.36667 -0.483333 0
2.36667 -0.5 0
2.38333 -0.5 0
2.36667 -0.483333 0
2.38333 -0.483333 0
2.38333 -0.5 0
2.4 -0.5 0
2.38333 -0.483333 0
2.4 -0.483333 0
2.4 -0.5 0
2.41667 -0.5 0
2.4 -0.483333 0
2.41667 -0.483333 0
2.41667 -0.5 0
2.43333 -0.5 0
2.41667 -0.483333 0
2.43333 -0.483333 0
2.43333 -0.5 0
2.45 -0.5 0
2.43333 -0.483333 0
2.45 -0.483333 0
2.45 -0.5 0
2.46667 -0.5 0
2.45 -0.483333 0
2.46667 -0.483333 0
2.46667 -0.5 0
[...]
POINT_DATA 43200
SCALARS x1_displacement double 1
LOOKUP_TABLE default
0 0.000192287 0 0.000199539 0.000192287 0.00040035 0.000199539 0.000454556 0.00040035 0.000650062 0.000454556 0.000732591 0.000650062 0.000946254 0.000732591 0.00103675 0.000946254 0.00128483 0.00103675 0.00136858 0.00128483 0.00166137 0.00136858 0.00172777 0.00166137 0.00207167 0.00172777 0.00211297 0.00207167 0.00251199 0.00211297 0.0025224 0.00251199 0.00297905 0.0025224 0.00295414 0.00297905 0.00346993 0.00295414 0.00340626 0.00346993 0.00398204 0.00340626 0.00387691 0.00398204 0.00451305 0.00387691 0.00436432 0.00451305 0.00506086 0.00436432 0.00486682 0.00506086 0.00562356 0.00486682 0.00538286 0.00562356 0.00619939 0.00538286 0.00591099 0.00619939 0.00678678 0.00591099 0.00644983 0.00678678 0.00738423 0.00644983 0.00699811 0.00738423 0.0079904 0.00699811 0.00755465 0.0079904 0.00860402 0.00755465 0.00811833 0.00860402 0.00922395 0.00811833 0.00868811 0.00922395 0.0098491 0.00868811 0.00926305 0.0098491 0.0104785 0.00926305 0.00984223 0.0104785 0.0111112 0.00984223 0.0104248 0.0111112 0.0117465 0.0104248 0.0110101 0.0117465 0.0123835 0.0110101 0.0115974 0.0123835 0.0130215 0.0115974 0.012186 0.0130215 0.01366 0.012186 0.0127753 0.01366 0.0142984 0.0127753 0.013365 0.0142984 0.0149362 0.013365 0.0139544 0.0149362 0.015573 0.0139544 0.0145432 0.015573 0.0162083 0.0145432 0.015131 0.0162083 0.016842 0.015131 0.0157175 0.016842 0.0174736 0.0157175 0.0163025 0.0174736 0.018103 0.0163025 0.0168857 0.018103 0.01873 0.0168857 0.017467 0.01873 0.0193545 0.017467 0.0180461 0.0193545 0.0199763 0.0180461 0.0186231 0.0199763 0.0205953 0.0186231 0.0191978 0.0205953 0.0212116 0.0191978 0.0197701 0.0212116 0.0218251 0.0197701 0.02034 0.0218251 0.0224358 0.02034 0.0209075 0.0224358 0.0230438 0.0209075 0.0214726 0.0230438 0.0236489 0.0214726 0.0220354 0.0236489 0.0242515 0.0220354 0.0225958 0.0242515 0.0248514 0.0225958 0.023154 0.0248514 0.0254487 0.023154 0.0237099 0.0254487 0.0260437 0.0237099 0.0242637 0.0260437 0.0266362 0.0242637 0.0248153 0.0266362 0.0272265 0.0248153 0.025365 0.0272265 0.0278146 0.025365 0.0259128 0.0278146 0.0284007 0.0259128 0.0264588 0.0284007 0.0289848 0.0264588 0.027003 0.0289848 0.0295671 0.027003 0.0275456 0.0295671 0.0301476 0.0275456 0.0280866 0.0301476 0.0307264 0.0280866 0.0286261 0.0307264 0.0313037 0.0286261 0.0291642 0.0313037 0.0318795 0.0291642 0.0297011 0.0318795 0.032454 0.0297011 0.0302367 0.032454 0.0330271 0.0302367 0.0307711 0.0330271 0.0335991 0.0307711 0.0313044 0.0335991 0.0341698 0.0313044 0.0318368 0.0341698 0.0347396 0.0318368 0.0323681 0.0347396 0.0353083 0.0323681 0.0328986 0.0353083 0.035876 0.0328986 0.0334282 0.035876 0.0364428 0.0334282 0.033957 0.0364428 0.0370088 0.033957 0.034485 0.0370088 0.0375739 0.034485 0.0350122 0.0375739 0.0381383 0.0350122 0.0355388 0.0381383 0.0387018 0.0355388 0.0360646 0.0387018 0.0392646 0.0360646 0.0365898 0.0392646 0.0398267 0.0365898 0.0371143 0.0398267 0.040388 0.0371143 0.0376382 0.040388 0.0409486 0.0376382 0.0381613 0.0409486 0.0415084 0.0381613 0.0386838 0.0415084 0.0420674 0.0386838 0.0392056 0.0420674 0.0426256 0.0392056 0.0397266 0.0426256 0.043183 0.0397266 0.0402468 0.043183 0.0437395 0.0402468 0.0407663 0.0437395 0.0442951 0.0407663 0.0412849 0.0442951 0.0448496 0.0412849 0.0418026 0.0448496 0.0454031 0.0418026 0.0423193 0.0454031 0.0459555 0.0423193 0.042835 0.0459555 0.0465066 0.042835 0.0433495 0.0465066 0.0470565 0.0433495 0.0438628 0.0470565 0.0476049 0.0438628 0.0443748 0.0476049 0.0481518 0.0443748 0.0448854 0.0481518 0.048697 0.0448854 0.0453945 0.048697 0.0492405 0.0453945 0.045902 0.0492405 0.0497821 0.045902 0.0464077 0.0497821 0.0503216 0.0464077 0.0469114 0.0503216 0.0508589 0.0469114 0.0474131 0.0508589 0.0513939 0.0474131 0.0479127 0.0513939 0.0519263 0.0479127 0.0484098 0.0519263 0.052456 0.0484098 0.0489045 0.052456 0.0529828 0.0489045 0.0493964 0.0529828 0.0535064 0.0493964 0.0498854 0.0535064 0.0540268 0.0498854 0.0503714 0.0540268 0.0545436 0.0503714 0.050854 0.0545436 0.0550567 0.050854 0.0513332 0.0550567 0.0555658 0.0513332 0.0518087 0.0555658 0.0560706 0.0518087 0.0522802 0.0560706 0.056571 0.0522802 0.0527476 0.056571 0.0570667 0.0527476 0.0532106 0.0570667 0.0575574 0.0532106 0.0536689 0.0575574 0.0580428 0.0536689 0.0541224 0.0580428 0.0585227 0.0541224 0.0545708 0.0585227 0.0589969 0.0545708 0.0550138 0.0589969 0.059465 0.0550138 0.0554512 0.059465 0.0599268 0.0554512 0.0558828 0.0599268 0.0603819 0.0558828 0.0563082 0.0603819 0.0608303 0.0563082 0.0567272 0.0608303 0.0612714 0.0567272 0.0571397 0.0612714 0.0617051 0.0571397 0.0575452 0.0617051 0.0621312 0.0575452 0.0579437 0.0621312 0.0625493 0.0579437 0.0583348 0.0625493 0.0629593 0.0583348 0.0587183 0.0629593 0.0633608 0.0587183 0.059094 0.0633608 0.0637536 0.059094 0.0594617 0.0637536 0.0641375 0.0594617 0.0598212 0.0641375 0.0645123 0.0598212 0.0601722 0.0645123 0.0648779 0.0601722 0.0605146 0.0648779 0.0652339 0.0605146 0.0608483 0.0652339 0.0655803 0.0608483 0.0611731 0.0655803 0.0659168 0.0611731 0.0614887 0.0659168 0.0662435 0.0614887 0.0617952 0.0662435 0.06656 0.0617952 0.0620924 0.06656 0.0668665 0.0620924 0.0623802 0.0668665 0.0671627 0.0623802 0.0626586 0.0671627 0.0674486 0.0626586 0.0629275 0.0674486 0.0677242 0.0629275 0.0631868 0.0677242 0.0679895 0.0631868 0.0634366 0.0679895 0.0682445 0.0634366 0.0636768 0.0682445 0.0684892 0.0636768 0.0639076 0.0684892 0.0687236 0.0639076 0.0641288 0.0687236 0.068948 0.0641288 0.0643407 0.068948 0.0691622 0.0643407 0.0645432 0.0691622 0.0693665 0.0645432 0.0647365 0.0693665 0.069561 0.0647365 0.0649207 0.069561 0.0697458 0.0649207 0.0650959 0.0697458 0.0699211 0.0650959 0.0652623 0.0699211 0.0700871 0.0652623 0.0654201 0.0700871 0.0702439 0.0654201 0.0655693 0.0702439 0.0703918 0.0655693 0.0657103 0.0703918 0.0705311 0.0657103 0.0658432 0.0705311 0.0706619 0.0658432 0.0659682 0.0706619 0.0707844 0.0659682 0.0660855 0.0707844 0.0708991 0.0660855 0.0661955 0.0708991 0.071006 0.0661955 0.0662982 0.071006 0.0711054 0.0662982 0.0663939 0.0711054 0.0711977 0.0663939 0.066483 0.0711977 0.0712831 0.066483 0.0665655 0.0712831 0.0713618 0.0665655 0.0666419 0.0713618 0.0714342 0.0666419 0.0667123 0.0714342 0.0715005 0.0667123 0.066777 0.0715005 0.0715609 0.066777 0.0668362 0.0715609 0.0716158 0.0668362 0.0668902 0.0716158 0.0716655 0.0668902 0.0669392 0.0716655 0.0717101 0.0669392 0.0669835 0.0717101 0.07175 0.0669835 0.0670233 0.07175 0.0717854 0.0670233 0.0670589 0.0717854 0.0718166 0.0670589 0.0670906 0.0718166 0.0718438 0.0670906 0.0671184 0.0718438 0.0718672 0.0671184 0.0671427 0.0718672 0.0718873 0.0671427 0.0671638 0.0718873 0.071904 0.0671638 0.0671818 0.071904 0.0719179 0.0671818 0.0671969 0.0719179 0.071929 0.0671969 0.0672095 0.071929 0.0719376 0.0672095 0.0672198 0.0719376 0.0719441 0.0672198 0.0672279 0.0719441 0.0719486 0.0672279 0.0672341 0.0719486 0.0719514 0.0672341 0.0672387 0.0719514 0.0719529 0.0672387 0.0672419 0.0719529 0.0719532 0.0672419 0.067244 0.0719532 0.0719528 0.067244 0.0672451 0.0719528 0.0719518 0.0672451 0.0672456 0.0719518 0.0719506 0.0672456 0.0672456 0.0719506 0.0719495 0.0672456 0.0672454 0.0719495 0.0719487 0.0672454 0.0672452 0.0719487 0.0719482 0.0672452 0.067245 0.0719482 0.0719481 0.067245 0.067245 0 0.000199539 0 0.000208399 0.000199539 0.000454556 0.000208399 0.000464594 0.000454556 0.000732591 0.000464594 0.000750829 0.000732591 0.00103675 0.000750829 0.00105737 0.00103675 0.00136858 0.00105737 0.0013833 0.00136858 0.00172777 0.0013833 0.00172871 0.00172777 0.00211297 0.00172871 0.00209344 0.00211297 0.0025224 0.00209344 0.0024769 0.0025224 0.00295414 0.0024769 0.00287819 0.00295414 0.00340626 0.00287819 0.00329624 0.00340626 0.00387691 0.00329624 0.00372986 0.00387691 0.00436432 0.00372986 0.00417783 0.00436432 0.00486682 0.00417783 0.00463894 0.00486682 0.00538286 0.00463894 0.00511198 0.00538286 0.00591099 0.00511198 0.0055958 0.00591099 0.00644983 0.0055958 0.00608929 0.00644983 0.00699811 0.00608929 0.00659138 0.00699811 0.00755465 0.00659138 0.00710106 0.00755465 0.00811833 0.00710106 0.00761737 0.00811833 0.00868811 0.00761737 0.00813942 0.00868811 0.00926305 0.00813942 0.00866635 0.00926305 0.00984223 0.00866635 0.00919738 0.00984223 0.0104248 0.00919738 0.00973176 0.0104248 0.0110101 0.00973176 0.0102688 0.0110101 0.0115974 0.0102688 0.0108079 0.0115974 0.012186 0.0108079 0.0113485 0.012186 0.0127753 0.0113485 0.01189 0.0127753 0.013365 0.01189 0.012432 0.013365 0.0139544 0.012432 0.012974 0.0139544 0.0145432 0.012974 0.0135158 0.0145432 0.015131 0.0135158 0.0140568 0.015131 0.0157175 0.0140568 0.0145969 0.0157175 0.0163025 0.0145969 0.0151358 0.0163025 0.0168857 0.0151358 0.0156733 0.0168857 0.017467 0.0156733 0.0162092 0.017467 0.0180461 0.0162092 0.0167433 0.0180461 0.0186231 0.0167433 0.0172757 0.0186231 0.0191978 0.0172757 0.0178061 0.0191978 0.0197701 0.0178061 0.0183345 0.0197701 0.02034 0.0183345 0.0188608 0.02034 0.0209075 0.0188608 0.0193851 0.0209075 0.0214726 0.0193851 0.0199074 0.0214726 0.0220354 0.0199074 0.0204276 0.0220354 0.0225958 0.0204276 0.0209458 0.0225958 0.023154 0.0209458 0.0214621 0.023154 0.0237099 0.0214621 0.0219764 0.0237099 0.0242637 0.0219764 0.0224888 0.0242637 0.0248153 0.0224888 0.0229995 0.0248153 0.025365 0.0229995 0.0235083 0.025365 0.0259128 0.0235083 0.0240156 0.0259128 0.0264588 0.0240156 0.0245212 0.0264588 0.027003 0.0245212 0.0250253 0.027003 0.0275456 0.0250253 0.0255279 0.0275456 0.0280866 0.0255279 0.0260292 0.0280866 0.0286261 0.0260292 0.0265292 0.0286261 0.0291642 0.0265292 0.027028 0.0291642 0.0297011 0.027028 0.0275256 0.0297011 0.0302367 0.0275256 0.0280222 0.0302367 0.0307711 0.0280222 0.0285178 0.0307711 0.0313044 0.0285178 0.0290124 0.0313044 0.0318368 0.0290124 0.0295061 0.0318368 0.0323681 0.0295061 0.029999 0.0323681 0.0328986 0.029999 0.030491 0.0328986 0.0334282 0.030491 0.0309824 0.0334282 0.033957 0.0309824 0.031473 0.033957 0.034485 0.031473 0.031963 0.034485 0.0350122 0.031963 0.0324523 0.0350122 0.0355388 0.0324523 0.032941 0.0355388 0.0360646 0.032941 0.0334292 0.0360646 0.0365898 0.0334292 0.0339167 0.0365898 0.0371143 0.0339167 0.0344036 0.0371143 0.0376382 0.0344036 0.03489 0.0376382 0.0381613 0.03489 0.0353758 0.0381613 0.0386838 0.0353758 0.035861 0.0386838 0.0392056 0.035861 0.0363455 0.0392056 0.0397266 0.0363455 0.0368294 0.0397266 0.0402468 0.0368294 0.0373127 0.0402468 0.0407663 0.0373127 0.0377952 0.0407663 0.0412849 0.0377952 0.038277 0.0412849 0.0418026 0.038277 0.038758 0.0418026 0.0423193 0.038758 0.0392381 0.0423193 0.042835 0.0392381 0.0397172 0.042835 0.0433495 0.0397172 0.0401954 0.0433495 0.0438628 0.0401954 0.0406724 0.0438628 0.0443748 0.0406724 0.0411483 0.0443748 0.0448854 0.0411483 0.0416229 0.0448854 0.0453945 0.0416229 0.0420961 0.0453945 0.045902 0.0420961 0.0425678 0.045902 0.0464077 0.0425678 0.043038 0.0464077 0.0469114 0.043038 0.0435063 0.0469114 0.0474131 0.0435063 0.0439728 0.0474131 0.0479127 0.0439728 0.0444373 0.0479127 0.0484098 0.0444373 0.0448997 0.0484098 0.0489045 0.0448997 0.0453597 0.0489045 0.0493964 0.0453597 0.0458172 0.0493964 0.0498854 0.0458172 0.0462721 0.0498854 0.0503714 0.0462721 0.0467241 0.0503714 0.050854 0.0467241 0.0471731 0.050854 0.0513332 0.0471731 0.0476189 0.0513332 0.0518087 0.0476189 0.0480613 0.0518087 0.0522802 0.0480613 0.0485001 0.0522802 0.0527476 0.0485001 0.0489351 0.0527476 0.0532106 0.0489351 0.049366 0.0532106 0.0536689 0.049366 0.0497926 0.0536689 0.0541224 0.0497926 0.0502148 0.0541224 0.0545708 0.0502148 0.0506323 0.0545708 0.0550138 0.0506323 0.0510448 0.0550138 0.0554512 0.0510448 0.0514521 0.0554512 0.0558828 0.0514521 0.051854 0.0558828 0.0563082 0.051854 0.0522503 0.0563082 0.0567272 0.0522503 0.0526408 0.0567272 0.0571397 0.0526408 0.0530251 0.0571397 0.0575452 0.0530251 0.053403 0.0575452 0.0579437 0.053403 0.0537745 0.0579437 0.0583348 0.0537745 0.0541391 0.0583348 0.0587183 0.0541391 0.0544968 0.0587183 0.059094 0.0544968 0.0548472 0.059094 0.0594617 0.0548472 0.0551903 0.0594617 0.0598212 0.0551903 0.0555258 0.0598212 0.0601722 0.0555258 0.0558535 0.0601722 0.0605146 0.0558535 0.0561733 0.0605146 0.0608483 0.0561733 0.056485 0.0608483 0.0611731 0.056485 0.0567884 0.0611731 0.0614887 0.0567884 0.0570835 0.0614887 0.0617952 0.0570835 0.0573702 0.0617952 0.0620924 0.0573702 0.0576482 0.0620924 0.0623802 0.0576482 0.0579176 0.0623802 0.0626586 0.0579176 0.0581782 0.0626586 0.0629275 0.0581782 0.0584301 0.0629275 0.0631868 0.0584301 0.0586732 0.0631868 0.0634366 0.0586732 0.0589074 0.0634366 0.0636768 0.0589074 0.0591329 0.0636768 0.0639076 0.0591329 0.0593495 0.0639076 0.0641288 0.0593495 0.0595574 0.0641288 0.0643407 0.0595574 0.0597566 0.0643407 0.0645432 0.0597566 0.0599472 0.0645432 0.0647365 0.0599472 0.0601292 0.0647365 0.0649207 0.0601292 0.0603028 0.0649207 0.0650959 0.0603028 0.0604681 0.0650959 0.0652623 0.0604681 0.0606252 0.0652623 0.0654201 0.0606252 0.0607742 0.0654201 0.0655693 0.0607742 0.0609154 0.0655693 0.0657103 0.0609154 0.0610489 0.0657103 0.0658432 0.0610489 0.0611749 0.0658432 0.0659682 0.0611749 0.0612936 0.0659682 0.0660855 0.0612936 0.0614051 0.0660855 0.0661955 0.0614051 0.0615098 0.0661955 0.0662982 0.0615098 0.0616077 0.0662982 0.0663939 0.0616077 0.0616992 0.0663939 0.066483 0.0616992 0.0617844 0.066483 0.0665655 0.0617844 0.0618635 0.0665655 0.0666419 0.0618635 0.0619369 0.0666419 0.0667123 0.0619369 0.0620047 0.0667123 0.066777 0.0620047 0.0620671 0.066777 0.0668362 0.0620671 0.0621244 0.0668362 0.0668902 0.0621244 0.0621769 0.0668902 0.0669392 0.0621769 0.0622247 0.0669392 0.0669835 0.0622247 0.0622681 0.0669835 0.0670233 0.0622681 0.0623072 0.0670233 0.0670589 0.0623072 0.0623424 0.0670589 0.0670906 0.0623424 0.0623739 0.0670906 0.0671184 0.0623739 0.0624018 0.0671184 0.0671427 0.0624018 0.0624264 0.0671427 0.0671638 0.0624264 0.0624479 0.0671638 0.0671818 0.0624479 0.0624665 0.0671818 0.0671969 0.0624665 0.0624825 0.0671969 0.0672095 0.0624825 0.0624959 0.0672095 0.0672198 0.0624959 0.0625072 0.0672198 0.0672279 0.0625072 0.0625164 0.0672279 0.0672341 0.0625164 0.0625237 0.0672341 0.0672387 0.0625237 0.0625295 0.0672387 0.0672419 0.0625295 0.0625338 0.0672419 0.067244 0.0625338 0.0625369 0.067244 0.0672451 0.0625369 0.0625391 0.0672451 0.0672456 0.0625391 0.0625404 0.0672456 0.0672456 0.0625404 0.0625412 0.0672456 0.0672454 0.0625412 0.0625415 0.0672454 0.0672452 0.0625415 0.0625416 0.0672452 0.067245 0.0625416 0.0625416 0.067245 0.067245 0.0625416 0.0625418 0 0.000208399 0 0.000206296 0.000208399 0.000464594 0.000206296 0.000456058 0.000464594 0.000750829 0.000456058 0.000735156 0.000750829 0.00105737 0.000735156 0.0010347 0.00105737 0.0013833 0.0010347 0.00135042 0.0013833 0.00172871 0.00135042 0.00168112 0.00172871 0.00209344 0.00168112 0.00202642 0.00209344 0.0024769 0.00202642 0.00238606 0.0024769 0.00287819 0.00238606 0.00275965 0.00287819 0.00329624 0.00275965 0.00314665 0.00329624 0.00372986 0.00314665 0.00354636 0.00372986 0.00417783 0.00354636 0.00395802 0.00417783 0.00463894 0.00395802 0.00438077 0.00463894 0.00511198 0.00438077 0.00481376 0.00511198 0.0055958 0.00481376 0.0052561 0.0055958 0.00608929 0.0052561 0.00570693 0.00608929 0.00659138 0.00570693 0.00616537 0.00659138 0.00710106 0.00616537 0.0066306 0.00710106 0.00761737 0.0066306 0.00710182 0.00761737 0.00813942 0.00710182 0.00757825 0.00813942 0.00866635 0.00757825 0.00805917 0.00866635 0.00919738 0.00805917 0.00854389 0.00919738 0.00973176 0.00854389 0.00903175 0.00973176 0.0102688 0.00903175 0.00952216 0.0102688 0.0108079 0.00952216 0.0100146 0.0108079 0.0113485 0.0100146 0.0105084 0.0113485 0.01189 0.0105084 0.0110033 0.01189 0.012432 0.0110033 0.0114987 0.012432 0.012974 0.0114987 0.0119943 0.012974 0.0135158 0.0119943 0.0124898 0.0135158 0.0140568 0.0124898 0.0129848 0.0140568 0.0145969 0.0129848 0.0134791 0.0145969 0.0151358 0.0134791 0.0139724 0.0151358 0.0156733 0.0139724 0.0144646 0.0156733 0.0162092 0.0144646 0.0149555 0.0162092 0.0167433 0.0149555 0.015445 0.0167433 0.0172757 0.015445 0.0159329 0.0172757 0.0178061 0.0159329 0.0164192 0.0178061 0.0183345 0.0164192 0.0169038 0.0183345 0.0188608 0.0169038 0.0173867 0.0188608 0.0193851 0.0173867 0.0178678 0.0193851 0.0199074 0.0178678 0.0183472 0.0199074 0.0204276 0.0183472 0.0188249 0.0204276 0.0209458 0.0188249 0.0193008 0.0209458 0.0214621 0.0193008 0.019775 0.0214621 0.0219764 0.019775 0.0202475 0.0219764 0.0224888 0.0202475 0.0207185 0.0224888 0.0229995 0.0207185 0.0211879 0.0229995 0.0235083 0.0211879 0.0216558 0.0235083 0.0240156 0.0216558 0.0221223 0.0240156 0.0245212 0.0221223 0.0225874 0.0245212 0.0250253 0.0225874 0.0230512 0.0250253 0.0255279 0.0230512 0.0235137 0.0255279 0.0260292 0.0235137 0.0239751 0.0260292 0.0265292 0.0239751 0.0244354 0.0265292 0.027028 0.0244354 0.0248947 0.027028 0.0275256 0.0248947 0.0253529 0.0275256 0.0280222 0.0253529 0.0258103 0.0280222 0.0285178 0.0258103 0.0262668 0.0285178 0.0290124 0.0262668 0.0267225 0.0290124 0.0295061 0.0267225 0.0271775 0.0295061 0.029999 0.0271775 0.0276318 0.029999 0.030491 0.0276318 0.0280854 0.030491 0.0309824 0.0280854 0.0285384 0.0309824 0.031473 0.0285384 0.0289908 0.031473 0.031963 0.0289908 0.0294427 0.031963 0.0324523 0.0294427 0.029894 0.0324523 0.032941 0.029894 0.0303448 0.032941 0.0334292 0.0303448 0.0307952 0.0334292 0.0339167 0.0307952 0.031245 0.0339167 0.0344036 0.031245 0.0316944 0.0344036 0.03489 0.0316944 0.0321433 0.03489 0.0353758 0.0321433 0.0325918 0.0353758 0.035861 0.0325918 0.0330397 0.035861 0.0363455 0.0330397 0.0334871 0.0363455 0.0368294 0.0334871 0.033934 0.0368294 0.0373127 0.033934 0.0343804 0.0373127 0.0377952 0.0343804 0.0348261 0.0377952 0.038277 0.0348261 0.0352712 0.038277 0.038758 0.0352712 0.0357156 0.038758 0.0392381 0.0357156 0.0361592 0.0392381 0.0397172 0.0361592 0.0366021 0.0397172 0.0401954 0.0366021 0.037044 0.0401954 0.0406724 0.037044 0.037485 0.0406724 0.0411483 0.037485 0.037925 0.0411483 0.0416229 0.037925 0.0383638 0.0416229 0.0420961 0.0383638 0.0388015 0.0420961 0.0425678 0.0388015 0.0392378 0.0425678 0.043038 0.0392378 0.0396726 0.043038 0.0435063 0.0396726 0.040106 0.0435063 0.0439728 0.040106 0.0405376 0.0439728 0.0444373 0.0405376 0.0409674 0.0444373 0.0448997 0.0409674 0.0413953 0.0448997 0.0453597 0.0413953 0.0418211 0.0453597 0.0458172 0.0418211 0.0422447 0.0458172 0.0462721 0.0422447 0.0426658 0.0462721 0.0467241 0.0426658 0.0430844 0.0467241 0.0471731 0.0430844 0.0435003 0.0471731 0.0476189 0.0435003 0.0439132 0.0476189 0.0480613 0.0439132 0.044323 0.0480613 0.0485001 0.044323 0.0447296 0.0485001 0.0489351 0.0447296 0.0451326 0.0489351 0.049366 0.0451326 0.045532 0.049366 0.0497926 0.045532 0.0459275 0.0497926 0.0502148 0.0459275 0.0463189 0.0502148 0.0506323 0.0463189 0.046706 0.0506323 0.0510448 0.046706 0.0470886 0.0510448 0.0514521 0.0470886 0.0474665 0.0514521 0.051854 0.0474665 0.0478394 0.051854 0.0522503 0.0478394 0.0482071 0.0522503 0.0526408 0.0482071 0.0485695 0.0526408 0.0530251 0.0485695 0.0489262 0.0530251 0.053403 0.0489262 0.0492772 0.053403 0.0537745 0.0492772 0.0496221 0.0537745 0.0541391 0.0496221 0.0499609 0.0541391 0.0544968 0.0499609 0.0502932 0.0544968 0.0548472 0.0502932 0.0506189 0.0548472 0.0551903 0.0506189 0.0509378 0.0551903 0.0555258 0.0509378 0.0512497 0.0555258 0.0558535 0.0512497 0.0515545 0.0558535 0.0561733 0.0515545 0.051852 0.0561733 0.056485 0.051852 0.0521421 0.056485 0.0567884 0.0521421 0.0524246 0.0567884 0.0570835 0.0524246 0.0526994 0.0570835 0.0573702 0.0526994 0.0529664 0.0573702 0.0576482 0.0529664 0.0532255 0.0576482 0.0579176 0.0532255 0.0534766 0.0579176 0.0581782 0.0534766 0.0537196 0.0581782 0.0584301 0.0537196 0.0539546 0.0584301 0.0586732 0.0539546 0.0541815 0.0586732 0.0589074 0.0541815 0.0544002 0.0589074 0.0591329 0.0544002 0.0546108 0.0591329 0.0593495 0.0546108 0.0548133 0.0593495 0.0595574 0.0548133 0.0550076 0.0595574 0.0597566 0.0550076 0.055194 0.0597566 0.0599472 0.055194 0.0553724 0.0599472 0.0601292 0.0553724 0.0555428 0.0601292 0.0603028 0.0555428 0.0557055 0.0603028 0