# vtk DataFile Version 3.0
#This file was generated by the deal.II library on 2021/2/10 at 1:29:35
ASCII
DATASET UNSTRUCTURED_GRID

POINTS 43200 double
0 -0.5 0
0.0166667 -0.5 0
0 -0.483333 0
0.0166667 -0.483333 0
0.0166667 -0.5 0
0.0333333 -0.5 0
0.0166667 -0.483333 0
0.0333333 -0.483333 0
0.0333333 -0.5 0
0.05 -0.5 0
0.0333333 -0.483333 0
0.05 -0.483333 0
0.05 -0.5 0
0.0666667 -0.5 0
0.05 -0.483333 0
0.0666667 -0.483333 0
0.0666667 -0.5 0
0.0833333 -0.5 0
0.0666667 -0.483333 0
0.0833333 -0.483333 0
0.0833333 -0.5 0
0.1 -0.5 0
0.0833333 -0.483333 0
0.1 -0.483333 0
0.1 -0.5 0
0.116667 -0.5 0
0.1 -0.483333 0
0.116667 -0.483333 0
0.116667 -0.5 0
0.133333 -0.5 0
0.116667 -0.483333 0
0.133333 -0.483333 0
0.133333 -0.5 0
0.15 -0.5 0
0.133333 -0.483333 0
0.15 -0.483333 0
0.15 -0.5 0
0.166667 -0.5 0
0.15 -0.483333 0
0.166667 -0.483333 0
0.166667 -0.5 0
0.183333 -0.5 0
0.166667 -0.483333 0
0.183333 -0.483333 0
0.183333 -0.5 0
0.2 -0.5 0
0.183333 -0.483333 0
0.2 -0.483333 0
0.2 -0.5 0
0.216667 -0.5 0
0.2 -0.483333 0
0.216667 -0.483333 0
0.216667 -0.5 0
0.233333 -0.5 0
0.216667 -0.483333 0
0.233333 -0.483333 0
0.233333 -0.5 0
0.25 -0.5 0
0.233333 -0.483333 0
0.25 -0.483333 0
0.25 -0.5 0
0.266667 -0.5 0
0.25 -0.483333 0
0.266667 -0.483333 0
0.266667 -0.5 0
0.283333 -0.5 0
0.266667 -0.483333 0
0.283333 -0.483333 0
0.283333 -0.5 0
0.3 -0.5 0
0.283333 -0.483333 0
0.3 -0.483333 0
0.3 -0.5 0
0.316667 -0.5 0
0.3 -0.483333 0
0.316667 -0.483333 0
0.316667 -0.5 0
0.333333 -0.5 0
0.316667 -0.483333 0
0.333333 -0.483333 0
0.333333 -0.5 0
0.35 -0.5 0
0.333333 -0.483333 0
0.35 -0.483333 0
0.35 -0.5 0
0.366667 -0.5 0
0.35 -0.483333 0
0.366667 -0.483333 0
0.366667 -0.5 0
0.383333 -0.5 0
0.366667 -0.483333 0
0.383333 -0.483333 0
0.383333 -0.5 0
0.4 -0.5 0
0.383333 -0.483333 0
0.4 -0.483333 0
0.4 -0.5 0
0.416667 -0.5 0
0.4 -0.483333 0
0.416667 -0.483333 0
0.416667 -0.5 0
0.433333 -0.5 0
0.416667 -0.483333 0
0.433333 -0.483333 0
0.433333 -0.5 0
0.45 -0.5 0
0.433333 -0.483333 0
0.45 -0.483333 0
0.45 -0.5 0
0.466667 -0.5 0
0.45 -0.483333 0
0.466667 -0.483333 0
0.466667 -0.5 0
0.483333 -0.5 0
0.466667 -0.483333 0
0.483333 -0.483333 0
0.483333 -0.5 0
0.5 -0.5 0
0.483333 -0.483333 0
0.5 -0.483333 0
0.5 -0.5 0
0.516667 -0.5 0
0.5 -0.483333 0
0.516667 -0.483333 0
0.516667 -0.5 0
0.533333 -0.5 0
0.516667 -0.483333 0
0.533333 -0.483333 0
0.533333 -0.5 0
0.55 -0.5 0
0.533333 -0.483333 0
0.55 -0.483333 0
0.55 -0.5 0
0.566667 -0.5 0
0.55 -0.483333 0
0.566667 -0.483333 0
0.566667 -0.5 0
0.583333 -0.5 0
0.566667 -0.483333 0
0.583333 -0.483333 0
0.583333 -0.5 0
0.6 -0.5 0
0.583333 -0.483333 0
0.6 -0.483333 0
0.6 -0.5 0
0.616667 -0.5 0
0.6 -0.483333 0
0.616667 -0.483333 0
0.616667 -0.5 0
0.633333 -0.5 0
0.616667 -0.483333 0
0.633333 -0.483333 0
0.633333 -0.5 0
0.65 -0.5 0
0.633333 -0.483333 0
0.65 -0.483333 0
0.65 -0.5 0
0.666667 -0.5 0
0.65 -0.483333 0
0.666667 -0.483333 0
0.666667 -0.5 0
0.683333 -0.5 0
0.666667 -0.483333 0
0.683333 -0.483333 0
0.683333 -0.5 0
0.7 -0.5 0
0.683333 -0.483333 0
0.7 -0.483333 0
0.7 -0.5 0
0.716667 -0.5 0
0.7 -0.483333 0
0.716667 -0.483333 0
0.716667 -0.5 0
0.733333 -0.5 0
0.716667 -0.483333 0
0.733333 -0.483333 0
0.733333 -0.5 0
0.75 -0.5 0
0.733333 -0.483333 0
0.75 -0.483333 0
0.75 -0.5 0
0.766667 -0.5 0
0.75 -0.483333 0
0.766667 -0.483333 0
0.766667 -0.5 0
0.783333 -0.5 0
0.766667 -0.483333 0
0.783333 -0.483333 0
0.783333 -0.5 0
0.8 -0.5 0
0.783333 -0.483333 0
0.8 -0.483333 0
0.8 -0.5 0
0.816667 -0.5 0
0.8 -0.483333 0
0.816667 -0.483333 0
0.816667 -0.5 0
0.833333 -0.5 0
0.816667 -0.483333 0
0.833333 -0.483333 0
0.833333 -0.5 0
0.85 -0.5 0
0.833333 -0.483333 0
0.85 -0.483333 0
0.85 -0.5 0
0.866667 -0.5 0
0.85 -0.483333 0
0.866667 -0.483333 0
0.866667 -0.5 0
0.883333 -0.5 0
0.866667 -0.483333 0
0.883333 -0.483333 0
0.883333 -0.5 0
0.9 -0.5 0
0.883333 -0.483333 0
0.9 -0.483333 0
0.9 -0.5 0
0.916667 -0.5 0
0.9 -0.483333 0
0.916667 -0.483333 0
0.916667 -0.5 0
0.933333 -0.5 0
0.916667 -0.483333 0
0.933333 -0.483333 0
0.933333 -0.5 0
0.95 -0.5 0
0.933333 -0.483333 0
0.95 -0.483333 0
0.95 -0.5 0
0.966667 -0.5 0
0.95 -0.483333 0
0.966667 -0.483333 0
0.966667 -0.5 0
0.983333 -0.5 0
0.966667 -0.483333 0
0.983333 -0.483333 0
0.983333 -0.5 0
1 -0.5 0
0.983333 -0.483333 0
1 -0.483333 0
1 -0.5 0
1.01667 -0.5 0
1 -0.483333 0
1.01667 -0.483333 0
1.01667 -0.5 0
1.03333 -0.5 0
1.01667 -0.483333 0
1.03333 -0.483333 0
1.03333 -0.5 0
1.05 -0.5 0
1.03333 -0.483333 0
1.05 -0.483333 0
1.05 -0.5 0
1.06667 -0.5 0
1.05 -0.483333 0
1.06667 -0.483333 0
1.06667 -0.5 0
1.08333 -0.5 0
1.06667 -0.483333 0
1.08333 -0.483333 0
1.08333 -0.5 0
1.1 -0.5 0
1.08333 -0.483333 0
1.1 -0.483333 0
1.1 -0.5 0
1.11667 -0.5 0
1.1 -0.483333 0
1.11667 -0.483333 0
1.11667 -0.5 0
1.13333 -0.5 0
1.11667 -0.483333 0
1.13333 -0.483333 0
1.13333 -0.5 0
1.15 -0.5 0
1.13333 -0.483333 0
1.15 -0.483333 0
1.15 -0.5 0
1.16667 -0.5 0
1.15 -0.483333 0
1.16667 -0.483333 0
1.16667 -0.5 0
1.18333 -0.5 0
1.16667 -0.483333 0
1.18333 -0.483333 0
1.18333 -0.5 0
1.2 -0.5 0
1.18333 -0.483333 0
1.2 -0.483333 0
1.2 -0.5 0
1.21667 -0.5 0
1.2 -0.483333 0
1.21667 -0.483333 0
1.21667 -0.5 0
1.23333 -0.5 0
1.21667 -0.483333 0
1.23333 -0.483333 0
1.23333 -0.5 0
1.25 -0.5 0
1.23333 -0.483333 0
1.25 -0.483333 0
1.25 -0.5 0
1.26667 -0.5 0
1.25 -0.483333 0
1.26667 -0.483333 0
1.26667 -0.5 0
1.28333 -0.5 0
1.26667 -0.483333 0
1.28333 -0.483333 0
1.28333 -0.5 0
1.3 -0.5 0
1.28333 -0.483333 0
1.3 -0.483333 0
1.3 -0.5 0
1.31667 -0.5 0
1.3 -0.483333 0
1.31667 -0.483333 0
1.31667 -0.5 0
1.33333 -0.5 0
1.31667 -0.483333 0
1.33333 -0.483333 0
1.33333 -0.5 0
1.35 -0.5 0
1.33333 -0.483333 0
1.35 -0.483333 0
1.35 -0.5 0
1.36667 -0.5 0
1.35 -0.483333 0
1.36667 -0.483333 0
1.36667 -0.5 0
1.38333 -0.5 0
1.36667 -0.483333 0
1.38333 -0.483333 0
1.38333 -0.5 0
1.4 -0.5 0
1.38333 -0.483333 0
1.4 -0.483333 0
1.4 -0.5 0
1.41667 -0.5 0
1.4 -0.483333 0
1.41667 -0.483333 0
1.41667 -0.5 0
1.43333 -0.5 0
1.41667 -0.483333 0
1.43333 -0.483333 0
1.43333 -0.5 0
1.45 -0.5 0
1.43333 -0.483333 0
1.45 -0.483333 0
1.45 -0.5 0
1.46667 -0.5 0
1.45 -0.483333 0
1.46667 -0.483333 0
1.46667 -0.5 0
1.48333 -0.5 0
1.46667 -0.483333 0
1.48333 -0.483333 0
1.48333 -0.5 0
1.5 -0.5 0
1.48333 -0.483333 0
1.5 -0.483333 0
1.5 -0.5 0
1.51667 -0.5 0
1.5 -0.483333 0
1.51667 -0.483333 0
1.51667 -0.5 0
1.53333 -0.5 0
1.51667 -0.483333 0
1.53333 -0.483333 0
1.53333 -0.5 0
1.55 -0.5 0
1.53333 -0.483333 0
1.55 -0.483333 0
1.55 -0.5 0
1.56667 -0.5 0
1.55 -0.483333 0
1.56667 -0.483333 0
1.56667 -0.5 0
1.58333 -0.5 0
1.56667 -0.483333 0
1.58333 -0.483333 0
1.58333 -0.5 0
1.6 -0.5 0
1.58333 -0.483333 0
1.6 -0.483333 0
1.6 -0.5 0
1.61667 -0.5 0
1.6 -0.483333 0
1.61667 -0.483333 0
1.61667 -0.5 0
1.63333 -0.5 0
1.61667 -0.483333 0
1.63333 -0.483333 0
1.63333 -0.5 0
1.65 -0.5 0
1.63333 -0.483333 0
1.65 -0.483333 0
1.65 -0.5 0
1.66667 -0.5 0
1.65 -0.483333 0
1.66667 -0.483333 0
1.66667 -0.5 0
1.68333 -0.5 0
1.66667 -0.483333 0
1.68333 -0.483333 0
1.68333 -0.5 0
1.7 -0.5 0
1.68333 -0.483333 0
1.7 -0.483333 0
1.7 -0.5 0
1.71667 -0.5 0
1.7 -0.483333 0
1.71667 -0.483333 0
1.71667 -0.5 0
1.73333 -0.5 0
1.71667 -0.483333 0
1.73333 -0.483333 0
1.73333 -0.5 0
1.75 -0.5 0
1.73333 -0.483333 0
1.75 -0.483333 0
1.75 -0.5 0
1.76667 -0.5 0
1.75 -0.483333 0
1.76667 -0.483333 0
1.76667 -0.5 0
1.78333 -0.5 0
1.76667 -0.483333 0
1.78333 -0.483333 0
1.78333 -0.5 0
1.8 -0.5 0
1.78333 -0.483333 0
1.8 -0.483333 0
1.8 -0.5 0
1.81667 -0.5 0
1.8 -0.483333 0
1.81667 -0.483333 0
1.81667 -0.5 0
1.83333 -0.5 0
1.81667 -0.483333 0
1.83333 -0.483333 0
1.83333 -0.5 0
1.85 -0.5 0
1.83333 -0.483333 0
1.85 -0.483333 0
1.85 -0.5 0
1.86667 -0.5 0
1.85 -0.483333 0
1.86667 -0.483333 0
1.86667 -0.5 0
1.88333 -0.5 0
1.86667 -0.483333 0
1.88333 -0.483333 0
1.88333 -0.5 0
1.9 -0.5 0
1.88333 -0.483333 0
1.9 -0.483333 0
1.9 -0.5 0
1.91667 -0.5 0
1.9 -0.483333 0
1.91667 -0.483333 0
1.91667 -0.5 0
1.93333 -0.5 0
1.91667 -0.483333 0
1.93333 -0.483333 0
1.93333 -0.5 0
1.95 -0.5 0
1.93333 -0.483333 0
1.95 -0.483333 0
1.95 -0.5 0
1.96667 -0.5 0
1.95 -0.483333 0
1.96667 -0.483333 0
1.96667 -0.5 0
1.98333 -0.5 0
1.96667 -0.483333 0
1.98333 -0.483333 0
1.98333 -0.5 0
2 -0.5 0
1.98333 -0.483333 0
2 -0.483333 0
2 -0.5 0
2.01667 -0.5 0
2 -0.483333 0
2.01667 -0.483333 0
2.01667 -0.5 0
2.03333 -0.5 0
2.01667 -0.483333 0
2.03333 -0.483333 0
2.03333 -0.5 0
2.05 -0.5 0
2.03333 -0.483333 0
2.05 -0.483333 0
2.05 -0.5 0
2.06667 -0.5 0
2.05 -0.483333 0
2.06667 -0.483333 0
2.06667 -0.5 0
2.08333 -0.5 0
2.06667 -0.483333 0
2.08333 -0.483333 0
2.08333 -0.5 0
2.1 -0.5 0
2.08333 -0.483333 0
2.1 -0.483333 0
2.1 -0.5 0
2.11667 -0.5 0
2.1 -0.483333 0
2.11667 -0.483333 0
2.11667 -0.5 0
2.13333 -0.5 0
2.11667 -0.483333 0
2.13333 -0.483333 0
2.13333 -0.5 0
2.15 -0.5 0
2.13333 -0.483333 0
2.15 -0.483333 0
2.15 -0.5 0
2.16667 -0.5 0
2.15 -0.483333 0
2.16667 -0.483333 0
2.16667 -0.5 0
2.18333 -0.5 0
2.16667 -0.483333 0
2.18333 -0.483333 0
2.18333 -0.5 0
2.2 -0.5 0
2.18333 -0.483333 0
2.2 -0.483333 0
2.2 -0.5 0
2.21667 -0.5 0
2.2 -0.483333 0
2.21667 -0.483333 0
2.21667 -0.5 0
2.23333 -0.5 0
2.21667 -0.483333 0
2.23333 -0.483333 0
2.23333 -0.5 0
2.25 -0.5 0
2.23333 -0.483333 0
2.25 -0.483333 0
2.25 -0.5 0
2.26667 -0.5 0
2.25 -0.483333 0
2.26667 -0.483333 0
2.26667 -0.5 0
2.28333 -0.5 0
2.26667 -0.483333 0
2.28333 -0.483333 0
2.28333 -0.5 0
2.3 -0.5 0
2.28333 -0.483333 0
2.3 -0.483333 0
2.3 -0.5 0
2.31667 -0.5 0
2.3 -0.483333 0
2.31667 -0.483333 0
2.31667 -0.5 0
2.33333 -0.5 0
2.31667 -0.483333 0
2.33333 -0.483333 0
2.33333 -0.5 0
2.35 -0.5 0
2.33333 -0.483333 0
2.35 -0.483333 0
2.35 -0.5 0
2.36667 -0.5 0
2.35 -0.483333 0
2.36667 -0.483333 0
2.36667 -0.5 0
2.38333 -0.5 0
2.36667 -0.483333 0
2.38333 -0.483333 0
2.38333 -0.5 0
2.4 -0.5 0
2.38333 -0.483333 0
2.4 -0.483333 0
2.4 -0.5 0
2.41667 -0.5 0
2.4 -0.483333 0
2.41667 -0.483333 0
2.41667 -0.5 0
2.43333 -0.5 0
2.41667 -0.483333 0
2.43333 -0.483333 0
2.43333 -0.5 0
2.45 -0.5 0
2.43333 -0.483333 0
2.45 -0.483333 0
2.45 -0.5 0
2.46667 -0.5 0
2.45 -0.483333 0
2.46667 -0.483333 0
2.46667 -0.5 0
[...]
POINT_DATA 43200
SCALARS x1_displacement double 1
LOOKUP_TABLE default
0 -0.000251185 0 -3.31974e-05 -0.000251185 -0.000350783 -3.31974e-05 -5.21009e-05 -0.000350783 -0.000336533 -5.21009e-05 -1.3946e-05 -0.000336533 -0.000238389 -1.3946e-05 8.11083e-05 -0.000238389 -7.14959e-05 8.11083e-05 0.000228332 -7.14959e-05 0.000153124 0.000228332 0.000422275 0.000153124 0.00042715 0.000422275 0.000657793 0.00042715 0.000743845 0.000657793 0.000930223 0.000743845 0.00109758 0.000930223 0.00123537 0.00109758 0.00148352 0.00123537 0.00156946 0.00148352 0.00189746 0.00156946 0.00192906 0.00189746 0.00233569 0.00192906 0.00231108 0.00233569 0.0027949 0.00231108 0.00271271 0.0027949 0.00327212 0.00271271 0.00313136 0.00327212 0.00376469 0.00313136 0.00356471 0.00376469 0.00427021 0.00356471 0.00401063 0.00427021 0.00478652 0.00401063 0.00446715 0.00478652 0.00531166 0.00446715 0.00493254 0.00531166 0.00584388 0.00493254 0.00540517 0.00584388 0.0063816 0.00540517 0.0058836 0.0063816 0.00692342 0.0058836 0.00636653 0.00692342 0.00746807 0.00636653 0.00685278 0.00746807 0.00801443 0.00685278 0.0073413 0.00801443 0.00856153 0.0073413 0.00783116 0.00856153 0.00910848 0.00783116 0.00832152 0.00910848 0.00965455 0.00832152 0.00881167 0.00965455 0.0101991 0.00881167 0.00930097 0.0101991 0.0107415 0.00930097 0.00978887 0.0107415 0.0112813 0.00978887 0.0102749 0.0112813 0.0118182 0.0102749 0.0107586 0.0118182 0.0123517 0.0107586 0.0112398 0.0123517 0.0128817 0.0112398 0.0117181 0.0128817 0.013408 0.0117181 0.0121932 0.013408 0.0139303 0.0121932 0.0126651 0.0139303 0.0144486 0.0126651 0.0131335 0.0144486 0.0149628 0.0131335 0.0135985 0.0149628 0.0154728 0.0135985 0.0140599 0.0154728 0.0159787 0.0140599 0.0145177 0.0159787 0.0164805 0.0145177 0.0149719 0.0164805 0.0169783 0.0149719 0.0154226 0.0169783 0.017472 0.0154226 0.0158697 0.017472 0.0179619 0.0158697 0.0163133 0.0179619 0.0184479 0.0163133 0.0167535 0.0184479 0.0189302 0.0167535 0.0171904 0.0189302 0.0194089 0.0171904 0.017624 0.0194089 0.0198842 0.017624 0.0180545 0.0198842 0.020356 0.0180545 0.018482 0.020356 0.0208247 0.018482 0.0189065 0.0208247 0.0212903 0.0189065 0.0193281 0.0212903 0.0217529 0.0193281 0.0197471 0.0217529 0.0222126 0.0197471 0.0201634 0.0222126 0.0226697 0.0201634 0.0205773 0.0226697 0.0231241 0.0205773 0.0209887 0.0231241 0.0235761 0.0209887 0.0213978 0.0235761 0.0240257 0.0213978 0.0218047 0.0240257 0.024473 0.0218047 0.0222095 0.024473 0.0249182 0.0222095 0.0226123 0.0249182 0.0253613 0.0226123 0.0230131 0.0253613 0.0258024 0.0230131 0.0234121 0.0258024 0.0262417 0.0234121 0.0238093 0.0262417 0.0266791 0.0238093 0.0242047 0.0266791 0.0271148 0.0242047 0.0245986 0.0271148 0.0275488 0.0245986 0.0249908 0.0275488 0.0279811 0.0249908 0.0253814 0.0279811 0.0284119 0.0253814 0.0257706 0.0284119 0.0288412 0.0257706 0.0261583 0.0288412 0.0292689 0.0261583 0.0265446 0.0292689 0.0296952 0.0265446 0.0269294 0.0296952 0.03012 0.0269294 0.0273129 0.03012 0.0305435 0.0273129 0.027695 0.0305435 0.0309655 0.027695 0.0280758 0.0309655 0.031386 0.0280758 0.0284553 0.031386 0.0318052 0.0284553 0.0288334 0.0318052 0.032223 0.0288334 0.0292101 0.032223 0.0326394 0.0292101 0.0295856 0.0326394 0.0330543 0.0295856 0.0299597 0.0330543 0.0334679 0.0299597 0.0303324 0.0334679 0.03388 0.0303324 0.0307038 0.03388 0.0342906 0.0307038 0.0310738 0.0342906 0.0346997 0.0310738 0.0314424 0.0346997 0.0351074 0.0314424 0.0318096 0.0351074 0.0355135 0.0318096 0.0321754 0.0355135 0.0359181 0.0321754 0.0325397 0.0359181 0.0363212 0.0325397 0.0329026 0.0363212 0.0367227 0.0329026 0.033264 0.0367227 0.0371226 0.033264 0.033624 0.0371226 0.0375209 0.033624 0.0339824 0.0375209 0.0379177 0.0339824 0.0343394 0.0379177 0.0383128 0.0343394 0.0346949 0.0383128 0.0387064 0.0346949 0.0350489 0.0387064 0.0390984 0.0350489 0.0354015 0.0390984 0.0394888 0.0354015 0.0357525 0.0394888 0.0398776 0.0357525 0.0361021 0.0398776 0.0402649 0.0361021 0.0364502 0.0402649 0.0406507 0.0364502 0.0367969 0.0406507 0.041035 0.0367969 0.0371422 0.041035 0.0414178 0.0371422 0.0374861 0.0414178 0.0417991 0.0374861 0.0378286 0.0417991 0.042179 0.0378286 0.0381697 0.042179 0.0425574 0.0381697 0.0385094 0.0425574 0.0429345 0.0385094 0.0388478 0.0429345 0.0433101 0.0388478 0.0391849 0.0433101 0.0436843 0.0391849 0.0395206 0.0436843 0.0440571 0.0395206 0.039855 0.0440571 0.0444285 0.039855 0.0401881 0.0444285 0.0447985 0.0401881 0.0405198 0.0447985 0.045167 0.0405198 0.0408502 0.045167 0.045534 0.0408502 0.0411793 0.045534 0.0458996 0.0411793 0.0415069 0.0458996 0.0462637 0.0415069 0.0418333 0.0462637 0.0466263 0.0418333 0.0421584 0.0466263 0.0469875 0.0421584 0.0424821 0.0469875 0.0473474 0.0424821 0.0428047 0.0473474 0.0477058 0.0428047 0.0431261 0.0477058 0.0480631 0.0431261 0.0434464 0.0480631 0.0484192 0.0434464 0.0437659 0.0484192 0.0487745 0.0437659 0.0440845 0.0487745 0.049129 0.0440845 0.0444026 0.049129 0.049483 0.0444026 0.0447204 0.049483 0.0498369 0.0447204 0.0450381 0.0498369 0.0501909 0.0450381 0.045356 0.0501909 0.0505454 0.045356 0.0456744 0.0505454 0.0509008 0.0456744 0.0459938 0.0509008 0.0512577 0.0459938 0.0463144 0.0512577 0.0516163 0.0463144 0.0466368 0.0516163 0.0519774 0.0466368 0.0469614 0.0519774 0.0523413 0.0469614 0.0472886 0.0523413 0.0527088 0.0472886 0.047619 0.0527088 0.0530803 0.047619 0.047953 0.0530803 0.0534566 0.047953 0.0482912 0.0534566 0.0538381 0.0482912 0.0486342 0.0538381 0.0542256 0.0486342 0.0489824 0.0542256 0.0546197 0.0489824 0.0493364 0.0546197 0.0550211 0.0493364 0.0496968 0.0550211 0.0554302 0.0496968 0.050064 0.0554302 0.0558478 0.050064 0.0504385 0.0558478 0.0562743 0.0504385 0.0508207 0.0562743 0.0567104 0.0508207 0.0512111 0.0567104 0.0571564 0.0512111 0.0516101 0.0571564 0.0576127 0.0516101 0.0520178 0.0576127 0.0580796 0.0520178 0.0524344 0.0580796 0.0585572 0.0524344 0.0528601 0.0585572 0.0590457 0.0528601 0.0532947 0.0590457 0.0595447 0.0532947 0.0537381 0.0595447 0.060054 0.0537381 0.0541898 0.060054 0.060573 0.0541898 0.0546494 0.060573 0.0611009 0.0546494 0.0551159 0.0611009 0.0616365 0.0551159 0.0555884 0.0616365 0.0621783 0.0555884 0.0560656 0.0621783 0.0627245 0.0560656 0.0565458 0.0627245 0.0632729 0.0565458 0.0570271 0.0632729 0.0638209 0.0570271 0.0575074 0.0638209 0.0643656 0.0575074 0.0579842 0.0643656 0.0649036 0.0579842 0.0584547 0.0649036 0.0654314 0.0584547 0.058916 0.0654314 0.0659451 0.058916 0.0593651 0.0659451 0.0664412 0.0593651 0.059799 0.0664412 0.0669161 0.059799 0.0602149 0.0669161 0.0673669 0.0602149 0.0606101 0.0673669 0.0677915 0.0606101 0.0609829 0.0677915 0.0681886 0.0609829 0.061332 0.0681886 0.0685586 0.061332 0.0616569 0.0685586 0.0689026 0.0616569 0.0619582 0.0689026 0.0692231 0.0619582 0.062237 0.0692231 0.0695229 0.062237 0.0624946 0.0695229 0.069805 0.0624946 0.0627325 0.069805 0.0700728 0.0627325 0.0629518 0.0700728 0.07033 0.0629518 0.0631532 0.07033 0.0705811 0.0631532 0.0633376 0.0705811 0.0708311 0.0633376 0.0635062 0.0708311 0.0710822 0.0635062 0.0636599 0.0710822 0.071328 0.0636599 0.0637974 0.071328 0.0715486 0.0637974 0.0639112 0.0715486 0.0717139 0.0639112 0.063987 0.0717139 0.0718004 0.063987 0.0640127 0.0718004 0.0718113 0.0640127 0.0639941 0.0718113 0.0717779 0.0639941 0.0639554 0.0717779 0.0717399 0.0639554 0.0639215 0.0717399 0.0717208 0.0639215 0.0639053 0.0717208 0.0717174 0.0639053 0.0639049 0 -3.31974e-05 0 2.63892e-05 -3.31974e-05 -5.21009e-05 2.63892e-05 8.19102e-05 -5.21009e-05 -1.3946e-05 8.19102e-05 0.000158652 -1.3946e-05 8.11083e-05 0.000158652 0.00026716 8.11083e-05 0.000228332 0.00026716 0.000409985 0.000228332 0.000422275 0.000409985 0.00058678 0.000422275 0.000657793 0.00058678 0.000795767 0.000657793 0.000930223 0.000795767 0.00103459 0.000930223 0.00123537 0.00103459 0.0013007 0.00123537 0.00156946 0.0013007 0.00159152 0.00156946 0.00192906 0.00159152 0.00190457 0.00192906 0.00231108 0.00190457 0.00223745 0.00231108 0.00271271 0.00223745 0.00258792 0.00271271 0.00313136 0.00258792 0.00295386 0.00313136 0.00356471 0.00295386 0.00333332 0.00356471 0.00401063 0.00333332 0.00372447 0.00401063 0.00446715 0.00372447 0.00412564 0.00446715 0.00493254 0.00412564 0.00453526 0.00493254 0.00540517 0.00453526 0.00495192 0.00540517 0.0058836 0.00495192 0.00537433 0.0058836 0.00636653 0.00537433 0.0058013 0.00636653 0.00685278 0.0058013 0.00623178 0.00685278 0.0073413 0.00623178 0.00666478 0.0073413 0.00783116 0.00666478 0.00709947 0.00783116 0.00832152 0.00709947 0.00753506 0.00832152 0.00881167 0.00753506 0.00797088 0.00881167 0.00930097 0.00797088 0.00840633 0.00930097 0.00978887 0.00840633 0.00884089 0.00978887 0.0102749 0.00884089 0.0092741 0.0102749 0.0107586 0.0092741 0.00970558 0.0107586 0.0112398 0.00970558 0.010135 0.0112398 0.0117181 0.010135 0.0105621 0.0117181 0.0121932 0.0105621 0.0109866 0.0121932 0.0126651 0.0109866 0.0114084 0.0126651 0.0131335 0.0114084 0.0118272 0.0131335 0.0135985 0.0118272 0.0122431 0.0135985 0.0140599 0.0122431 0.0126559 0.0140599 0.0145177 0.0126559 0.0130656 0.0145177 0.0149719 0.0130656 0.0134722 0.0149719 0.0154226 0.0134722 0.0138756 0.0154226 0.0158697 0.0138756 0.0142759 0.0158697 0.0163133 0.0142759 0.0146732 0.0163133 0.0167535 0.0146732 0.0150674 0.0167535 0.0171904 0.0150674 0.0154586 0.0171904 0.017624 0.0154586 0.0158469 0.017624 0.0180545 0.0158469 0.0162324 0.0180545 0.018482 0.0162324 0.0166152 0.018482 0.0189065 0.0166152 0.0169953 0.0189065 0.0193281 0.0169953 0.0173728 0.0193281 0.0197471 0.0173728 0.0177478 0.0197471 0.0201634 0.0177478 0.0181205 0.0201634 0.0205773 0.0181205 0.0184908 0.0205773 0.0209887 0.0184908 0.018859 0.0209887 0.0213978 0.018859 0.019225 0.0213978 0.0218047 0.019225 0.019589 0.0218047 0.0222095 0.019589 0.0199511 0.0222095 0.0226123 0.0199511 0.0203112 0.0226123 0.0230131 0.0203112 0.0206696 0.0230131 0.0234121 0.0206696 0.0210262 0.0234121 0.0238093 0.0210262 0.0213812 0.0238093 0.0242047 0.0213812 0.0217345 0.0242047 0.0245986 0.0217345 0.0220863 0.0245986 0.0249908 0.0220863 0.0224366 0.0249908 0.0253814 0.0224366 0.0227855 0.0253814 0.0257706 0.0227855 0.0231329 0.0257706 0.0261583 0.0231329 0.023479 0.0261583 0.0265446 0.023479 0.0238237 0.0265446 0.0269294 0.0238237 0.0241671 0.0269294 0.0273129 0.0241671 0.0245092 0.0273129 0.027695 0.0245092 0.02485 0.027695 0.0280758 0.02485 0.0251895 0.0280758 0.0284553 0.0251895 0.0255278 0.0284553 0.0288334 0.0255278 0.0258648 0.0288334 0.0292101 0.0258648 0.0262006 0.0292101 0.0295856 0.0262006 0.0265351 0.0295856 0.0299597 0.0265351 0.0268684 0.0299597 0.0303324 0.0268684 0.0272003 0.0303324 0.0307038 0.0272003 0.027531 0.0307038 0.0310738 0.027531 0.0278604 0.0310738 0.0314424 0.0278604 0.0281885 0.0314424 0.0318096 0.0281885 0.0285153 0.0318096 0.0321754 0.0285153 0.0288408 0.0321754 0.0325397 0.0288408 0.0291649 0.0325397 0.0329026 0.0291649 0.0294876 0.0329026 0.033264 0.0294876 0.029809 0.033264 0.033624 0.029809 0.030129 0.033624 0.0339824 0.030129 0.0304477 0.0339824 0.0343394 0.0304477 0.0307649 0.0343394 0.0346949 0.0307649 0.0310807 0.0346949 0.0350489 0.0310807 0.0313952 0.0350489 0.0354015 0.0313952 0.0317082 0.0354015 0.0357525 0.0317082 0.0320199 0.0357525 0.0361021 0.0320199 0.0323302 0.0361021 0.0364502 0.0323302 0.0326391 0.0364502 0.0367969 0.0326391 0.0329467 0.0367969 0.0371422 0.0329467 0.0332529 0.0371422 0.0374861 0.0332529 0.0335579 0.0374861 0.0378286 0.0335579 0.0338615 0.0378286 0.0381697 0.0338615 0.0341638 0.0381697 0.0385094 0.0341638 0.0344648 0.0385094 0.0388478 0.0344648 0.0347646 0.0388478 0.0391849 0.0347646 0.0350631 0.0391849 0.0395206 0.0350631 0.0353603 0.0395206 0.039855 0.0353603 0.0356563 0.039855 0.0401881 0.0356563 0.0359511 0.0401881 0.0405198 0.0359511 0.0362446 0.0405198 0.0408502 0.0362446 0.0365368 0.0408502 0.0411793 0.0365368 0.0368278 0.0411793 0.0415069 0.0368278 0.0371176 0.0415069 0.0418333 0.0371176 0.0374062 0.0418333 0.0421584 0.0374062 0.0376936 0.0421584 0.0424821 0.0376936 0.0379798 0.0424821 0.0428047 0.0379798 0.0382649 0.0428047 0.0431261 0.0382649 0.0385489 0.0431261 0.0434464 0.0385489 0.0388321 0.0434464 0.0437659 0.0388321 0.0391144 0.0437659 0.0440845 0.0391144 0.039396 0.0440845 0.0444026 0.039396 0.0396771 0.0444026 0.0447204 0.0396771 0.0399579 0.0447204 0.0450381 0.0399579 0.0402387 0.0450381 0.045356 0.0402387 0.0405197 0.045356 0.0456744 0.0405197 0.0408011 0.0456744 0.0459938 0.0408011 0.0410834 0.0459938 0.0463144 0.0410834 0.0413668 0.0463144 0.0466368 0.0413668 0.0416518 0.0466368 0.0469614 0.0416518 0.0419387 0.0469614 0.0472886 0.0419387 0.042228 0.0472886 0.047619 0.042228 0.04252 0.047619 0.047953 0.04252 0.0428152 0.047953 0.0482912 0.0428152 0.0431141 0.0482912 0.0486342 0.0431141 0.0434171 0.0486342 0.0489824 0.0434171 0.0437247 0.0489824 0.0493364 0.0437247 0.0440374 0.0493364 0.0496968 0.0440374 0.0443555 0.0496968 0.050064 0.0443555 0.0446795 0.050064 0.0504385 0.0446795 0.0450098 0.0504385 0.0508207 0.0450098 0.0453468 0.0508207 0.0512111 0.0453468 0.0456907 0.0512111 0.0516101 0.0456907 0.0460419 0.0516101 0.0520178 0.0460419 0.0464006 0.0520178 0.0524344 0.0464006 0.0467668 0.0524344 0.0528601 0.0467668 0.0471406 0.0528601 0.0532947 0.0471406 0.047522 0.0532947 0.0537381 0.047522 0.0479107 0.0537381 0.0541898 0.0479107 0.0483063 0.0541898 0.0546494 0.0483063 0.0487084 0.0546494 0.0551159 0.0487084 0.0491163 0.0551159 0.0555884 0.0491163 0.049529 0.0555884 0.0560656 0.049529 0.0499455 0.0560656 0.0565458 0.0499455 0.0503644 0.0565458 0.0570271 0.0503644 0.0507841 0.0570271 0.0575074 0.0507841 0.0512028 0.0575074 0.0579842 0.0512028 0.0516185 0.0579842 0.0584547 0.0516185 0.0520287 0.0584547 0.058916 0.0520287 0.0524311 0.058916 0.0593651 0.0524311 0.0528229 0.0593651 0.059799 0.0528229 0.0532016 0.059799 0.0602149 0.0532016 0.0535644 0.0602149 0.0606101 0.0535644 0.0539088 0.0606101 0.0609829 0.0539088 0.0542328 0.0609829 0.061332 0.0542328 0.0545348 0.061332 0.0616569 0.0545348 0.0548138 0.0616569 0.0619582 0.0548138 0.0550698 0.0619582 0.062237 0.0550698 0.0553034 0.062237 0.0624946 0.0553034 0.0555153 0.0624946 0.0627325 0.0555153 0.055706 0.0627325 0.0629518 0.055706 0.0558743 0.0629518 0.0631532 0.0558743 0.0560179 0.0631532 0.0633376 0.0560179 0.0561345 0.0633376 0.0635062 0.0561345 0.0562242 0.0635062 0.0636599 0.0562242 0.0562898 0.0636599 0.0637974 0.0562898 0.0563358 0.0637974 0.0639112 0.0563358 0.0563658 0.0639112 0.063987 0.0563658 0.056365 0.063987 0.0640127 0.056365 0.0563124 0.0640127 0.0639941 0.0563124 0.0562201 0.0639941 0.0639554 0.0562201 0.0561318 0.0639554 0.0639215 0.0561318 0.0560802 0.0639215 0.0639053 0.0560802 0.0560665 0.0639053 0.0639049 0.0560665 0.0560779 0 2.63892e-05 0 5.224e-05 2.63892e-05 8.19102e-05 5.224e-05 0.000134666 8.19102e-05 0.000158652 0.000134666 0.000236831 0.000158652 0.00026716 0.000236831 0.000357809 0.00026716 0.000409985 0.000357809 0.000500584 0.000409985 0.00058678 0.000500584 0.000666619 0.00058678 0.000795767 0.000666619 0.000856135 0.000795767 0.00103459 0.000856135 0.00106848 0.00103459 0.0013007 0.00106848 0.00130246 0.0013007 0.00159152 0.00130246 0.0015566 0.00159152 0.00190457 0.0015566 0.00182928 0.00190457 0.00223745 0.00182928 0.00211882 0.00223745 0.00258792 0.00211882 0.00242352 0.00258792 0.00295386 0.00242352 0.00274176 0.00295386 0.00333332 0.00274176 0.00307197 0.00333332 0.00372447 0.00307197 0.00341263 0.00372447 0.00412564 0.00341263 0.00376235 0.00412564 0.00453526 0.00376235 0.0041198 0.00453526 0.00495192 0.0041198 0.00448378 0.00495192 0.00537433 0.00448378 0.00485314 0.00537433 0.0058013 0.00485314 0.00522685 0.0058013 0.00623178 0.00522685 0.00560398 0.00623178 0.00666478 0.00560398 0.00598366 0.00666478 0.00709947 0.00598366 0.00636512 0.00709947 0.00753506 0.00636512 0.00674766 0.00753506 0.00797088 0.00674766 0.00713068 0.00797088 0.00840633 0.00713068 0.00751361 0.00840633 0.00884089 0.00751361 0.00789599 0.00884089 0.0092741 0.00789599 0.00827738 0.0092741 0.00970558 0.00827738 0.00865743 0.00970558 0.010135 0.00865743 0.00903583 0.010135 0.0105621 0.00903583 0.00941231 0.0105621 0.0109866 0.00941231 0.00978665 0.0109866 0.0114084 0.00978665 0.0101587 0.0114084 0.0118272 0.0101587 0.0105283 0.0118272 0.0122431 0.0105283 0.0108953 0.0122431 0.0126559 0.0108953 0.0112596 0.0126559 0.0130656 0.0112596 0.0116213 0.0130656 0.0134722 0.0116213 0.0119802 0.0134722 0.0138756 0.0119802 0.0123364 0.0138756 0.0142759 0.0123364 0.0126899 0.0142759 0.0146732 0.0126899 0.0130406 0.0146732 0.0150674 0.0130406 0.0133887 0.0150674 0.0154586 0.0133887 0.0137341 0.0154586 0.0158469 0.0137341 0.0140769 0.0158469 0.0162324 0.0140769 0.0144172 0.0162324 0.0166152 0.0144172 0.014755 0.0166152 0.0169953 0.014755 0.0150905 0.0169953 0.0173728 0.0150905 0.0154236 0.0173728 0.0177478 0.0154236 0.0157545 0.0177478 0.0181205 0.0157545 0.0160833 0.0181205 0.0184908 0.0160833 0.01641 0.0184908 0.018859 0.01641 0.0167346 0.018859 0.019225 0.0167346 0.0170573 0.019225 0.019589 0.0170573 0.0173782 0.019589 0.0199511 0.0173782 0.0176973 0.0199511 0.0203112 0.0176973 0.0180147 0.0203112 0.0206696 0.0180147 0.0183304 0.0206696 0.0210262 0.0183304 0.0186445 0.0210262 0.0213812 0.0186445 0.0189571 0.0213812 0.0217345 0.0189571 0.0192682 0.0217345 0.0220863 0.0192682 0.0195779 0.0220863 0.0224366 0.0195779 0.0198861 0.0224366 0.0227855 0.0198861 0.0201931 0.0227855 0.0231329 0.0201931 0.0204987 0.0231329 0.023479 0.0204987 0.020803 0.023479 0.0238237 0.020803 0.0211061 0.0238237 0.0241671 0.0211061 0.021408 0.0241671 0.0245092 0.021408 0.0217087 0.0245092 0.02485 0.0217087 0.0220081 0.02485 0.0251895 0.0220081 0.0223064 0.0251895 0.0255278 0.0223064 0.0226035 0.0255278 0.0258648 0.0226035 0.0228995 0.0258648 0.0262006 0.0228995 0.0231942 0.0262006 0.0265351 0.0231942 0.0234878 0.0265351 0.0268684 0.0234878 0.0237802 0.0268684 0.0272003 0.0237802 0.0240715 0.0272003 0.027531 0.0240715 0.0243615 0.027531 0.0278604 0.0243615 0.0246503 0.0278604 0.0281885 0.0246503 0.024938 0.0281885 0.0285153 0.024938 0.0252244 0.0285153 0.0288408 0.0252244 0.0255095 0.0288408 0.0291649 0.0255095 0.0257934 0.0291649 0.0294876 0.0257934 0.0260761 0.0294876 0.029809 0.0260761 0.0263574 0.029809 0.030129 0.0263574 0.0266375 0.030129 0.0304477 0.0266375 0.0269163 0.0304477 0.0307649 0.0269163 0.0271938 0.0307649 0.0310807 0.0271938 0.02747 0.0310807 0.0313952 0.02747 0.0277449 0.0313952 0.0317082 0.0277449 0.0280184 0.0317082 0.0320199 0.0280184 0.0282907 0.0320199 0.0323302 0.0282907 0.0285617 0.0323302 0.0326391 0.0285617 0.0288314 0.0326391 0.0329467 0.0288314 0.0290998 0.0329467 0.0332529 0.0290998 0.029367 0.0332529 0.0335579 0.029367 0.0296329 0.0335579 0.0338615 0.0296329 0.0298976 0.0338615 0.0341638 0.0298976 0.0301611 0.0341638 0.0344648 0.0301611 0.0304234 0.0344648 0.0347646 0.0304234 0.0306844 0.0347646 0.0350631 0.0306844 0.0309444 0.0350631 0.0353603 0.0309444 0.0312031 0.0353603 0.0356563 0.0312031 0.0314607 0.0356563 0.0359511 0.0314607 0.0317171 0.0359511 0.0362446 0.0317171 0.0319724 0.0362446 0.0365368 0.0319724 0.0322265 0.0365368 0.0368278 0.0322265 0.0324795 0.0368278 0.0371176 0.0324795 0.0327313 0.0371176 0.0374062 0.0327313 0.032982 0.0374062 0.0376936 0.032982 0.0332316 0.0376936 0.0379798 0.0332316 0.0334801 0.0379798 0.0382649 0.0334801 0.0337275 0.0382649 0.0385489 0.0337275 0.033974 0.0385489 0.0388321 0.033974 0.0342196 0.0388321 0.0391144 0.0342196 0.0344644 0.0391144 0.039396 0.0344644 0.0347085 0.039396 0.0396771 0.0347085 0.0349522 0.0396771 0.0399579 0.0349522 0.0351955 0.0399579 0.0402387 0.0351955 0.0354387 0.0402387 0.0405197 0.0354387 0.035682 0.0405197 0.0408011 0.035682 0.0359257 0.0408011 0.0410834 0.0359257 0.03617 0.0410834 0.0413668 0.03617 0.0364153 0.0413668 0.0416518 0.0364153 0.0366619 0.0416518 0.0419387 0.0366619 0.0369101 0.0419387 0.042228 0.0369101 0.0371603 0.042228 0.04252 0.0371603 0.0374129 0.04252 0.0428152 0.0374129 0.0376682 0.0428152 0.0431141 0.0376682 0.0379267 0.0431141 0.0434171 0.0379267 0.0381887 0.0434171 0.0437247 0.0381887 0.0384546 0.0437247 0.0440374 0.0384546 0.0387247 0.0440374 0.0443555 0.0387247 0.03899