# vtk DataFile Version 3.0
#This file was generated by the deal.II library on 2021/2/10 at 1:45:03
ASCII
DATASET UNSTRUCTURED_GRID

POINTS 43200 double
0 -0.5 0
0.0166667 -0.5 0
0 -0.483333 0
0.0166667 -0.483333 0
0.0166667 -0.5 0
0.0333333 -0.5 0
0.0166667 -0.483333 0
0.0333333 -0.483333 0
0.0333333 -0.5 0
0.05 -0.5 0
0.0333333 -0.483333 0
0.05 -0.483333 0
0.05 -0.5 0
0.0666667 -0.5 0
0.05 -0.483333 0
0.0666667 -0.483333 0
0.0666667 -0.5 0
0.0833333 -0.5 0
0.0666667 -0.483333 0
0.0833333 -0.483333 0
0.0833333 -0.5 0
0.1 -0.5 0
0.0833333 -0.483333 0
0.1 -0.483333 0
0.1 -0.5 0
0.116667 -0.5 0
0.1 -0.483333 0
0.116667 -0.483333 0
0.116667 -0.5 0
0.133333 -0.5 0
0.116667 -0.483333 0
0.133333 -0.483333 0
0.133333 -0.5 0
0.15 -0.5 0
0.133333 -0.483333 0
0.15 -0.483333 0
0.15 -0.5 0
0.166667 -0.5 0
0.15 -0.483333 0
0.166667 -0.483333 0
0.166667 -0.5 0
0.183333 -0.5 0
0.166667 -0.483333 0
0.183333 -0.483333 0
0.183333 -0.5 0
0.2 -0.5 0
0.183333 -0.483333 0
0.2 -0.483333 0
0.2 -0.5 0
0.216667 -0.5 0
0.2 -0.483333 0
0.216667 -0.483333 0
0.216667 -0.5 0
0.233333 -0.5 0
0.216667 -0.483333 0
0.233333 -0.483333 0
0.233333 -0.5 0
0.25 -0.5 0
0.233333 -0.483333 0
0.25 -0.483333 0
0.25 -0.5 0
0.266667 -0.5 0
0.25 -0.483333 0
0.266667 -0.483333 0
0.266667 -0.5 0
0.283333 -0.5 0
0.266667 -0.483333 0
0.283333 -0.483333 0
0.283333 -0.5 0
0.3 -0.5 0
0.283333 -0.483333 0
0.3 -0.483333 0
0.3 -0.5 0
0.316667 -0.5 0
0.3 -0.483333 0
0.316667 -0.483333 0
0.316667 -0.5 0
0.333333 -0.5 0
0.316667 -0.483333 0
0.333333 -0.483333 0
0.333333 -0.5 0
0.35 -0.5 0
0.333333 -0.483333 0
0.35 -0.483333 0
0.35 -0.5 0
0.366667 -0.5 0
0.35 -0.483333 0
0.366667 -0.483333 0
0.366667 -0.5 0
0.383333 -0.5 0
0.366667 -0.483333 0
0.383333 -0.483333 0
0.383333 -0.5 0
0.4 -0.5 0
0.383333 -0.483333 0
0.4 -0.483333 0
0.4 -0.5 0
0.416667 -0.5 0
0.4 -0.483333 0
0.416667 -0.483333 0
0.416667 -0.5 0
0.433333 -0.5 0
0.416667 -0.483333 0
0.433333 -0.483333 0
0.433333 -0.5 0
0.45 -0.5 0
0.433333 -0.483333 0
0.45 -0.483333 0
0.45 -0.5 0
0.466667 -0.5 0
0.45 -0.483333 0
0.466667 -0.483333 0
0.466667 -0.5 0
0.483333 -0.5 0
0.466667 -0.483333 0
0.483333 -0.483333 0
0.483333 -0.5 0
0.5 -0.5 0
0.483333 -0.483333 0
0.5 -0.483333 0
0.5 -0.5 0
0.516667 -0.5 0
0.5 -0.483333 0
0.516667 -0.483333 0
0.516667 -0.5 0
0.533333 -0.5 0
0.516667 -0.483333 0
0.533333 -0.483333 0
0.533333 -0.5 0
0.55 -0.5 0
0.533333 -0.483333 0
0.55 -0.483333 0
0.55 -0.5 0
0.566667 -0.5 0
0.55 -0.483333 0
0.566667 -0.483333 0
0.566667 -0.5 0
0.583333 -0.5 0
0.566667 -0.483333 0
0.583333 -0.483333 0
0.583333 -0.5 0
0.6 -0.5 0
0.583333 -0.483333 0
0.6 -0.483333 0
0.6 -0.5 0
0.616667 -0.5 0
0.6 -0.483333 0
0.616667 -0.483333 0
0.616667 -0.5 0
0.633333 -0.5 0
0.616667 -0.483333 0
0.633333 -0.483333 0
0.633333 -0.5 0
0.65 -0.5 0
0.633333 -0.483333 0
0.65 -0.483333 0
0.65 -0.5 0
0.666667 -0.5 0
0.65 -0.483333 0
0.666667 -0.483333 0
0.666667 -0.5 0
0.683333 -0.5 0
0.666667 -0.483333 0
0.683333 -0.483333 0
0.683333 -0.5 0
0.7 -0.5 0
0.683333 -0.483333 0
0.7 -0.483333 0
0.7 -0.5 0
0.716667 -0.5 0
0.7 -0.483333 0
0.716667 -0.483333 0
0.716667 -0.5 0
0.733333 -0.5 0
0.716667 -0.483333 0
0.733333 -0.483333 0
0.733333 -0.5 0
0.75 -0.5 0
0.733333 -0.483333 0
0.75 -0.483333 0
0.75 -0.5 0
0.766667 -0.5 0
0.75 -0.483333 0
0.766667 -0.483333 0
0.766667 -0.5 0
0.783333 -0.5 0
0.766667 -0.483333 0
0.783333 -0.483333 0
0.783333 -0.5 0
0.8 -0.5 0
0.783333 -0.483333 0
0.8 -0.483333 0
0.8 -0.5 0
0.816667 -0.5 0
0.8 -0.483333 0
0.816667 -0.483333 0
0.816667 -0.5 0
0.833333 -0.5 0
0.816667 -0.483333 0
0.833333 -0.483333 0
0.833333 -0.5 0
0.85 -0.5 0
0.833333 -0.483333 0
0.85 -0.483333 0
0.85 -0.5 0
0.866667 -0.5 0
0.85 -0.483333 0
0.866667 -0.483333 0
0.866667 -0.5 0
0.883333 -0.5 0
0.866667 -0.483333 0
0.883333 -0.483333 0
0.883333 -0.5 0
0.9 -0.5 0
0.883333 -0.483333 0
0.9 -0.483333 0
0.9 -0.5 0
0.916667 -0.5 0
0.9 -0.483333 0
0.916667 -0.483333 0
0.916667 -0.5 0
0.933333 -0.5 0
0.916667 -0.483333 0
0.933333 -0.483333 0
0.933333 -0.5 0
0.95 -0.5 0
0.933333 -0.483333 0
0.95 -0.483333 0
0.95 -0.5 0
0.966667 -0.5 0
0.95 -0.483333 0
0.966667 -0.483333 0
0.966667 -0.5 0
0.983333 -0.5 0
0.966667 -0.483333 0
0.983333 -0.483333 0
0.983333 -0.5 0
1 -0.5 0
0.983333 -0.483333 0
1 -0.483333 0
1 -0.5 0
1.01667 -0.5 0
1 -0.483333 0
1.01667 -0.483333 0
1.01667 -0.5 0
1.03333 -0.5 0
1.01667 -0.483333 0
1.03333 -0.483333 0
1.03333 -0.5 0
1.05 -0.5 0
1.03333 -0.483333 0
1.05 -0.483333 0
1.05 -0.5 0
1.06667 -0.5 0
1.05 -0.483333 0
1.06667 -0.483333 0
1.06667 -0.5 0
1.08333 -0.5 0
1.06667 -0.483333 0
1.08333 -0.483333 0
1.08333 -0.5 0
1.1 -0.5 0
1.08333 -0.483333 0
1.1 -0.483333 0
1.1 -0.5 0
1.11667 -0.5 0
1.1 -0.483333 0
1.11667 -0.483333 0
1.11667 -0.5 0
1.13333 -0.5 0
1.11667 -0.483333 0
1.13333 -0.483333 0
1.13333 -0.5 0
1.15 -0.5 0
1.13333 -0.483333 0
1.15 -0.483333 0
1.15 -0.5 0
1.16667 -0.5 0
1.15 -0.483333 0
1.16667 -0.483333 0
1.16667 -0.5 0
1.18333 -0.5 0
1.16667 -0.483333 0
1.18333 -0.483333 0
1.18333 -0.5 0
1.2 -0.5 0
1.18333 -0.483333 0
1.2 -0.483333 0
1.2 -0.5 0
1.21667 -0.5 0
1.2 -0.483333 0
1.21667 -0.483333 0
1.21667 -0.5 0
1.23333 -0.5 0
1.21667 -0.483333 0
1.23333 -0.483333 0
1.23333 -0.5 0
1.25 -0.5 0
1.23333 -0.483333 0
1.25 -0.483333 0
1.25 -0.5 0
1.26667 -0.5 0
1.25 -0.483333 0
1.26667 -0.483333 0
1.26667 -0.5 0
1.28333 -0.5 0
1.26667 -0.483333 0
1.28333 -0.483333 0
1.28333 -0.5 0
1.3 -0.5 0
1.28333 -0.483333 0
1.3 -0.483333 0
1.3 -0.5 0
1.31667 -0.5 0
1.3 -0.483333 0
1.31667 -0.483333 0
1.31667 -0.5 0
1.33333 -0.5 0
1.31667 -0.483333 0
1.33333 -0.483333 0
1.33333 -0.5 0
1.35 -0.5 0
1.33333 -0.483333 0
1.35 -0.483333 0
1.35 -0.5 0
1.36667 -0.5 0
1.35 -0.483333 0
1.36667 -0.483333 0
1.36667 -0.5 0
1.38333 -0.5 0
1.36667 -0.483333 0
1.38333 -0.483333 0
1.38333 -0.5 0
1.4 -0.5 0
1.38333 -0.483333 0
1.4 -0.483333 0
1.4 -0.5 0
1.41667 -0.5 0
1.4 -0.483333 0
1.41667 -0.483333 0
1.41667 -0.5 0
1.43333 -0.5 0
1.41667 -0.483333 0
1.43333 -0.483333 0
1.43333 -0.5 0
1.45 -0.5 0
1.43333 -0.483333 0
1.45 -0.483333 0
1.45 -0.5 0
1.46667 -0.5 0
1.45 -0.483333 0
1.46667 -0.483333 0
1.46667 -0.5 0
1.48333 -0.5 0
1.46667 -0.483333 0
1.48333 -0.483333 0
1.48333 -0.5 0
1.5 -0.5 0
1.48333 -0.483333 0
1.5 -0.483333 0
1.5 -0.5 0
1.51667 -0.5 0
1.5 -0.483333 0
1.51667 -0.483333 0
1.51667 -0.5 0
1.53333 -0.5 0
1.51667 -0.483333 0
1.53333 -0.483333 0
1.53333 -0.5 0
1.55 -0.5 0
1.53333 -0.483333 0
1.55 -0.483333 0
1.55 -0.5 0
1.56667 -0.5 0
1.55 -0.483333 0
1.56667 -0.483333 0
1.56667 -0.5 0
1.58333 -0.5 0
1.56667 -0.483333 0
1.58333 -0.483333 0
1.58333 -0.5 0
1.6 -0.5 0
1.58333 -0.483333 0
1.6 -0.483333 0
1.6 -0.5 0
1.61667 -0.5 0
1.6 -0.483333 0
1.61667 -0.483333 0
1.61667 -0.5 0
1.63333 -0.5 0
1.61667 -0.483333 0
1.63333 -0.483333 0
1.63333 -0.5 0
1.65 -0.5 0
1.63333 -0.483333 0
1.65 -0.483333 0
1.65 -0.5 0
1.66667 -0.5 0
1.65 -0.483333 0
1.66667 -0.483333 0
1.66667 -0.5 0
1.68333 -0.5 0
1.66667 -0.483333 0
1.68333 -0.483333 0
1.68333 -0.5 0
1.7 -0.5 0
1.68333 -0.483333 0
1.7 -0.483333 0
1.7 -0.5 0
1.71667 -0.5 0
1.7 -0.483333 0
1.71667 -0.483333 0
1.71667 -0.5 0
1.73333 -0.5 0
1.71667 -0.483333 0
1.73333 -0.483333 0
1.73333 -0.5 0
1.75 -0.5 0
1.73333 -0.483333 0
1.75 -0.483333 0
1.75 -0.5 0
1.76667 -0.5 0
1.75 -0.483333 0
1.76667 -0.483333 0
1.76667 -0.5 0
1.78333 -0.5 0
1.76667 -0.483333 0
1.78333 -0.483333 0
1.78333 -0.5 0
1.8 -0.5 0
1.78333 -0.483333 0
1.8 -0.483333 0
1.8 -0.5 0
1.81667 -0.5 0
1.8 -0.483333 0
1.81667 -0.483333 0
1.81667 -0.5 0
1.83333 -0.5 0
1.81667 -0.483333 0
1.83333 -0.483333 0
1.83333 -0.5 0
1.85 -0.5 0
1.83333 -0.483333 0
1.85 -0.483333 0
1.85 -0.5 0
1.86667 -0.5 0
1.85 -0.483333 0
1.86667 -0.483333 0
1.86667 -0.5 0
1.88333 -0.5 0
1.86667 -0.483333 0
1.88333 -0.483333 0
1.88333 -0.5 0
1.9 -0.5 0
1.88333 -0.483333 0
1.9 -0.483333 0
1.9 -0.5 0
1.91667 -0.5 0
1.9 -0.483333 0
1.91667 -0.483333 0
1.91667 -0.5 0
1.93333 -0.5 0
1.91667 -0.483333 0
1.93333 -0.483333 0
1.93333 -0.5 0
1.95 -0.5 0
1.93333 -0.483333 0
1.95 -0.483333 0
1.95 -0.5 0
1.96667 -0.5 0
1.95 -0.483333 0
1.96667 -0.483333 0
1.96667 -0.5 0
1.98333 -0.5 0
1.96667 -0.483333 0
1.98333 -0.483333 0
1.98333 -0.5 0
2 -0.5 0
1.98333 -0.483333 0
2 -0.483333 0
2 -0.5 0
2.01667 -0.5 0
2 -0.483333 0
2.01667 -0.483333 0
2.01667 -0.5 0
2.03333 -0.5 0
2.01667 -0.483333 0
2.03333 -0.483333 0
2.03333 -0.5 0
2.05 -0.5 0
2.03333 -0.483333 0
2.05 -0.483333 0
2.05 -0.5 0
2.06667 -0.5 0
2.05 -0.483333 0
2.06667 -0.483333 0
2.06667 -0.5 0
2.08333 -0.5 0
2.06667 -0.483333 0
2.08333 -0.483333 0
2.08333 -0.5 0
2.1 -0.5 0
2.08333 -0.483333 0
2.1 -0.483333 0
2.1 -0.5 0
2.11667 -0.5 0
2.1 -0.483333 0
2.11667 -0.483333 0
2.11667 -0.5 0
2.13333 -0.5 0
2.11667 -0.483333 0
2.13333 -0.483333 0
2.13333 -0.5 0
2.15 -0.5 0
2.13333 -0.483333 0
2.15 -0.483333 0
2.15 -0.5 0
2.16667 -0.5 0
2.15 -0.483333 0
2.16667 -0.483333 0
2.16667 -0.5 0
2.18333 -0.5 0
2.16667 -0.483333 0
2.18333 -0.483333 0
2.18333 -0.5 0
2.2 -0.5 0
2.18333 -0.483333 0
2.2 -0.483333 0
2.2 -0.5 0
2.21667 -0.5 0
2.2 -0.483333 0
2.21667 -0.483333 0
2.21667 -0.5 0
2.23333 -0.5 0
2.21667 -0.483333 0
2.23333 -0.483333 0
2.23333 -0.5 0
2.25 -0.5 0
2.23333 -0.483333 0
2.25 -0.483333 0
2.25 -0.5 0
2.26667 -0.5 0
2.25 -0.483333 0
2.26667 -0.483333 0
2.26667 -0.5 0
2.28333 -0.5 0
2.26667 -0.483333 0
2.28333 -0.483333 0
2.28333 -0.5 0
2.3 -0.5 0
2.28333 -0.483333 0
2.3 -0.483333 0
2.3 -0.5 0
2.31667 -0.5 0
2.3 -0.483333 0
2.31667 -0.483333 0
2.31667 -0.5 0
2.33333 -0.5 0
2.31667 -0.483333 0
2.33333 -0.483333 0
2.33333 -0.5 0
2.35 -0.5 0
2.33333 -0.483333 0
2.35 -0.483333 0
2.35 -0.5 0
2.36667 -0.5 0
2.35 -0.483333 0
2.36667 -0.483333 0
2.36667 -0.5 0
2.38333 -0.5 0
2.36667 -0.483333 0
2.38333 -0.483333 0
2.38333 -0.5 0
2.4 -0.5 0
2.38333 -0.483333 0
2.4 -0.483333 0
2.4 -0.5 0
2.41667 -0.5 0
2.4 -0.483333 0
2.41667 -0.483333 0
2.41667 -0.5 0
2.43333 -0.5 0
2.41667 -0.483333 0
2.43333 -0.483333 0
2.43333 -0.5 0
2.45 -0.5 0
2.43333 -0.483333 0
2.45 -0.483333 0
2.45 -0.5 0
2.46667 -0.5 0
2.45 -0.483333 0
2.46667 -0.483333 0
2.46667 -0.5 0
[...]
POINT_DATA 43200
SCALARS x1_displacement double 1
LOOKUP_TABLE default
0 0.000434285 0 0.000429071 0.000434285 0.000929651 0.000429071 0.000978208 0.000929651 0.00151777 0.000978208 0.00157096 0.00151777 0.00219078 0.00157096 0.00220537 0.00219078 0.00292535 0.00220537 0.00287541 0.00292535 0.00370079 0.00287541 0.00357246 0.00370079 0.00450029 0.00357246 0.00428782 0.00450029 0.00531132 0.00428782 0.00501396 0.00531132 0.00612504 0.00501396 0.005745 0.00612504 0.00693551 0.005745 0.00647653 0.00693551 0.00773899 0.00647653 0.00720542 0.00773899 0.00853322 0.00720542 0.00792951 0.00853322 0.00931702 0.00792951 0.00864738 0.00931702 0.0100898 0.00864738 0.00935813 0.0100898 0.0108516 0.00935813 0.0100612 0.0108516 0.0116023 0.0100612 0.0107564 0.0116023 0.0123424 0.0107564 0.0114435 0.0123424 0.0130721 0.0114435 0.0121226 0.0130721 0.013792 0.0121226 0.0127938 0.013792 0.0145022 0.0127938 0.0134572 0.0145022 0.0152034 0.0134572 0.0141129 0.0152034 0.0158958 0.0141129 0.0147613 0.0158958 0.0165799 0.0147613 0.0154025 0.0165799 0.0172561 0.0154025 0.0160368 0.0172561 0.0179248 0.0160368 0.0166644 0.0179248 0.0185863 0.0166644 0.0172856 0.0185863 0.019241 0.0172856 0.0179007 0.019241 0.0198893 0.0179007 0.01851 0.0198893 0.0205316 0.01851 0.0191138 0.0205316 0.0211683 0.0191138 0.0197123 0.0211683 0.0217996 0.0197123 0.020306 0.0217996 0.0224261 0.020306 0.020895 0.0224261 0.023048 0.020895 0.0214797 0.023048 0.0236657 0.0214797 0.0220603 0.0236657 0.0242795 0.0220603 0.0226373 0.0242795 0.0248898 0.0226373 0.0232108 0.0248898 0.0254969 0.0232108 0.0237811 0.0254969 0.026101 0.0237811 0.0243485 0.026101 0.0267024 0.0243485 0.0249132 0.0267024 0.0273015 0.0249132 0.0254755 0.0273015 0.0278985 0.0254755 0.0260357 0.0278985 0.0284935 0.0260357 0.0265938 0.0284935 0.0290869 0.0265938 0.0271502 0.0290869 0.0296788 0.0271502 0.027705 0.0296788 0.0302694 0.027705 0.0282583 0.0302694 0.0308588 0.0282583 0.0288103 0.0308588 0.0314473 0.0288103 0.0293612 0.0314473 0.0320349 0.0293612 0.029911 0.0320349 0.0326217 0.029911 0.0304598 0.0326217 0.0332078 0.0304598 0.0310078 0.0332078 0.0337933 0.0310078 0.0315551 0.0337933 0.0343782 0.0315551 0.0321015 0.0343782 0.0349627 0.0321015 0.0326473 0.0349627 0.0355466 0.0326473 0.0331924 0.0355466 0.03613 0.0331924 0.0337368 0.03613 0.036713 0.0337368 0.0342805 0.036713 0.0372954 0.0342805 0.0348235 0.0372954 0.0378773 0.0348235 0.0353658 0.0378773 0.0384585 0.0353658 0.0359074 0.0384585 0.039039 0.0359074 0.0364481 0.039039 0.0396188 0.0364481 0.0369879 0.0396188 0.0401978 0.0369879 0.0375267 0.0401978 0.0407758 0.0375267 0.0380645 0.0407758 0.0413527 0.0380645 0.0386011 0.0413527 0.0419285 0.0386011 0.0391364 0.0419285 0.0425029 0.0391364 0.0396704 0.0425029 0.0430759 0.0396704 0.0402028 0.0430759 0.0436474 0.0402028 0.0407337 0.0436474 0.0442171 0.0407337 0.0412628 0.0442171 0.0447849 0.0412628 0.04179 0.0447849 0.0453507 0.04179 0.0423152 0.0453507 0.0459144 0.0423152 0.0428382 0.0459144 0.0464757 0.0428382 0.043359 0.0464757 0.0470346 0.043359 0.0438773 0.0470346 0.0475909 0.0438773 0.0443931 0.0475909 0.0481444 0.0443931 0.0449062 0.0481444 0.048695 0.0449062 0.0454166 0.048695 0.0492427 0.0454166 0.045924 0.0492427 0.0497872 0.045924 0.0464284 0.0497872 0.0503285 0.0464284 0.0469298 0.0503285 0.0508665 0.0469298 0.0474279 0.0508665 0.0514011 0.0474279 0.0479228 0.0514011 0.0519322 0.0479228 0.0484143 0.0519322 0.0524597 0.0484143 0.0489024 0.0524597 0.0529837 0.0489024 0.049387 0.0529837 0.053504 0.049387 0.0498682 0.053504 0.0540206 0.0498682 0.0503458 0.0540206 0.0545335 0.0503458 0.0508199 0.0545335 0.0550427 0.0508199 0.0512903 0.0550427 0.0555482 0.0512903 0.0517572 0.0555482 0.05605 0.0517572 0.0522205 0.05605 0.0565481 0.0522205 0.0526802 0.0565481 0.0570425 0.0526802 0.0531364 0.0570425 0.0575332 0.0531364 0.053589 0.0575332 0.0580203 0.053589 0.054038 0.0580203 0.0585038 0.054038 0.0544836 0.0585038 0.0589837 0.0544836 0.0549256 0.0589837 0.05946 0.0549256 0.0553641 0.05946 0.0599328 0.0553641 0.0557992 0.0599328 0.060402 0.0557992 0.0562308 0.060402 0.0608678 0.0562308 0.056659 0.0608678 0.0613301 0.056659 0.0570837 0.0613301 0.0617888 0.0570837 0.057505 0.0617888 0.062244 0.057505 0.0579229 0.062244 0.0626958 0.0579229 0.0583373 0.0626958 0.0631439 0.0583373 0.0587482 0.0631439 0.0635885 0.0587482 0.0591556 0.0635885 0.0640294 0.0591556 0.0595595 0.0640294 0.0644667 0.0595595 0.0599598 0.0644667 0.0649003 0.0599598 0.0603565 0.0649003 0.06533 0.0603565 0.0607496 0.06533 0.0657559 0.0607496 0.061139 0.0657559 0.0661779 0.061139 0.0615246 0.0661779 0.066596 0.0615246 0.0619065 0.066596 0.06701 0.0619065 0.0622846 0.06701 0.0674199 0.0622846 0.0626589 0.0674199 0.0678257 0.0626589 0.0630293 0.0678257 0.0682274 0.0630293 0.063396 0.0682274 0.068625 0.063396 0.0637589 0.068625 0.0690184 0.0637589 0.064118 0.0690184 0.0694079 0.064118 0.0644736 0.0694079 0.0697935 0.0644736 0.0648258 0.0697935 0.0701753 0.0648258 0.0651747 0.0701753 0.0705538 0.0651747 0.0655206 0.0705538 0.070929 0.0655206 0.0658639 0.070929 0.0713017 0.0658639 0.0662049 0.0713017 0.0716721 0.0662049 0.0665444 0.0716721 0.0720413 0.0665444 0.0668828 0.0720413 0.0724099 0.0668828 0.0672211 0.0724099 0.0727791 0.0672211 0.0675601 0.0727791 0.0731502 0.0675601 0.0679012 0.0731502 0.0735248 0.0679012 0.0682455 0.0735248 0.0739049 0.0682455 0.0685949 0.0739049 0.0742927 0.0685949 0.0689509 0.0742927 0.0746907 0.0689509 0.0693158 0.0746907 0.0751019 0.0693158 0.0696918 0.0751019 0.0755293 0.0696918 0.0700813 0.0755293 0.0759764 0.0700813 0.0704867 0.0759764 0.0764464 0.0704867 0.0709106 0.0764464 0.0769425 0.0709106 0.0713551 0.0769425 0.0774672 0.0713551 0.071822 0.0774672 0.0780221 0.071822 0.0723121 0.0780221 0.0786074 0.0723121 0.0728255 0.0786074 0.0792213 0.0728255 0.0733604 0.0792213 0.0798601 0.0733604 0.0739139 0.0798601 0.0805178 0.0739139 0.0744812 0.0805178 0.0811861 0.0744812 0.0750558 0.0811861 0.0818552 0.0750558 0.0756301 0.0818552 0.0825143 0.0756301 0.0761958 0.0825143 0.0831527 0.0761958 0.0767445 0.0831527 0.0837601 0.0767445 0.0772682 0.0837601 0.0843282 0.0772682 0.0777602 0.0843282 0.0848508 0.0777602 0.0782154 0.0848508 0.085324 0.0782154 0.0786302 0.085324 0.0857463 0.0786302 0.079003 0.0857463 0.0861182 0.079003 0.0793335 0.0861182 0.086442 0.0793335 0.0796226 0.086442 0.0867207 0.0796226 0.0798721 0.0867207 0.0869582 0.0798721 0.0800842 0.0869582 0.0871581 0.0800842 0.0802612 0.0871581 0.0873238 0.0802612 0.0804055 0.0873238 0.0874584 0.0804055 0.0805189 0.0874584 0.0875645 0.0805189 0.0806032 0.0875645 0.0876443 0.0806032 0.0806598 0.0876443 0.0877004 0.0806598 0.0806906 0.0877004 0.0877364 0.0806906 0.0806974 0.0877364 0.0877566 0.0806974 0.0806832 0.0877566 0.0877672 0.0806832 0.0806512 0.0877672 0.0877753 0.0806512 0.0806057 0.0877753 0.087789 0.0806057 0.0805509 0.087789 0.0878168 0.0805509 0.080491 0.0878168 0.0878677 0.080491 0.0804298 0.0878677 0.0879495 0.0804298 0.0803713 0.0879495 0.0880635 0.0803713 0.080321 0.0880635 0.0881958 0.080321 0.0802809 0.0881958 0.0883137 0.0802809 0.0802399 0.0883137 0.0883868 0.0802399 0.0801823 0.0883868 0.0884157 0.0801823 0.0801164 0.0884157 0.0884256 0.0801164 0.0800742 0.0884256 0.0884286 0.0800742 0.0800638 0 0.000429071 0 0.000418586 0.000429071 0.000978208 0.000418586 0.000940482 0.000978208 0.00157096 0.000940482 0.00151948 0.00157096 0.00220537 0.00151948 0.00212717 0.00220537 0.00287541 0.00212717 0.00275437 0.00287541 0.00357246 0.00275437 0.00339543 0.00357246 0.00428782 0.00339543 0.00404604 0.00428782 0.00501396 0.00404604 0.00470268 0.00501396 0.005745 0.00470268 0.00536254 0.005745 0.00647653 0.00536254 0.00602335 0.00647653 0.00720542 0.00602335 0.00668331 0.00720542 0.00792951 0.00668331 0.00734101 0.00792951 0.00864738 0.00734101 0.00799533 0.00864738 0.00935813 0.00799533 0.00864542 0.00935813 0.0100612 0.00864542 0.00929064 0.0100612 0.0107564 0.00929064 0.00993051 0.0107564 0.0114435 0.00993051 0.0105647 0.0114435 0.0121226 0.0105647 0.0111929 0.0121226 0.0127938 0.0111929 0.0118151 0.0127938 0.0134572 0.0118151 0.0124311 0.0134572 0.0141129 0.0124311 0.0130409 0.0141129 0.0147613 0.0130409 0.0136447 0.0147613 0.0154025 0.0136447 0.0142423 0.0154025 0.0160368 0.0142423 0.014834 0.0160368 0.0166644 0.014834 0.0154199 0.0166644 0.0172856 0.0154199 0.0160002 0.0172856 0.0179007 0.0160002 0.016575 0.0179007 0.01851 0.016575 0.0171445 0.01851 0.0191138 0.0171445 0.017709 0.0191138 0.0197123 0.017709 0.0182687 0.0197123 0.020306 0.0182687 0.0188238 0.020306 0.020895 0.0188238 0.0193746 0.020895 0.0214797 0.0193746 0.0199213 0.0214797 0.0220603 0.0199213 0.0204642 0.0220603 0.0226373 0.0204642 0.0210036 0.0226373 0.0232108 0.0210036 0.0215396 0.0232108 0.0237811 0.0215396 0.0220725 0.0237811 0.0243485 0.0220725 0.0226026 0.0243485 0.0249132 0.0226026 0.02313 0.0249132 0.0254755 0.02313 0.023655 0.0254755 0.0260357 0.023655 0.0241778 0.0260357 0.0265938 0.0241778 0.0246986 0.0265938 0.0271502 0.0246986 0.0252175 0.0271502 0.027705 0.0252175 0.0257347 0.027705 0.0282583 0.0257347 0.0262504 0.0282583 0.0288103 0.0262504 0.0267647 0.0288103 0.0293612 0.0267647 0.0272777 0.0293612 0.029911 0.0272777 0.0277895 0.029911 0.0304598 0.0277895 0.0283002 0.0304598 0.0310078 0.0283002 0.0288099 0.0310078 0.0315551 0.0288099 0.0293187 0.0315551 0.0321015 0.0293187 0.0298266 0.0321015 0.0326473 0.0298266 0.0303336 0.0326473 0.0331924 0.0303336 0.0308398 0.0331924 0.0337368 0.0308398 0.0313452 0.0337368 0.0342805 0.0313452 0.0318498 0.0342805 0.0348235 0.0318498 0.0323535 0.0348235 0.0353658 0.0323535 0.0328564 0.0353658 0.0359074 0.0328564 0.0333583 0.0359074 0.0364481 0.0333583 0.0338593 0.0364481 0.0369879 0.0338593 0.0343594 0.0369879 0.0375267 0.0343594 0.0348583 0.0375267 0.0380645 0.0348583 0.0353561 0.0380645 0.0386011 0.0353561 0.0358526 0.0386011 0.0391364 0.0358526 0.0363478 0.0391364 0.0396704 0.0363478 0.0368416 0.0396704 0.0402028 0.0368416 0.0373338 0.0402028 0.0407337 0.0373338 0.0378244 0.0407337 0.0412628 0.0378244 0.0383131 0.0412628 0.04179 0.0383131 0.0388 0.04179 0.0423152 0.0388 0.0392849 0.0423152 0.0428382 0.0392849 0.0397677 0.0428382 0.043359 0.0397677 0.0402482 0.043359 0.0438773 0.0402482 0.0407263 0.0438773 0.0443931 0.0407263 0.0412019 0.0443931 0.0449062 0.0412019 0.041675 0.0449062 0.0454166 0.041675 0.0421453 0.0454166 0.045924 0.0421453 0.0426128 0.045924 0.0464284 0.0426128 0.0430774 0.0464284 0.0469298 0.0430774 0.043539 0.0469298 0.0474279 0.043539 0.0439975 0.0474279 0.0479228 0.0439975 0.0444528 0.0479228 0.0484143 0.0444528 0.0449049 0.0484143 0.0489024 0.0449049 0.0453537 0.0489024 0.049387 0.0453537 0.0457991 0.049387 0.0498682 0.0457991 0.0462412 0.0498682 0.0503458 0.0462412 0.0466799 0.0503458 0.0508199 0.0466799 0.0471151 0.0508199 0.0512903 0.0471151 0.0475469 0.0512903 0.0517572 0.0475469 0.0479752 0.0517572 0.0522205 0.0479752 0.0484 0.0522205 0.0526802 0.0484 0.0488213 0.0526802 0.0531364 0.0488213 0.0492392 0.0531364 0.053589 0.0492392 0.0496536 0.053589 0.054038 0.0496536 0.0500646 0.054038 0.0544836 0.0500646 0.0504721 0.0544836 0.0549256 0.0504721 0.0508762 0.0549256 0.0553641 0.0508762 0.0512769 0.0553641 0.0557992 0.0512769 0.0516743 0.0557992 0.0562308 0.0516743 0.0520682 0.0562308 0.056659 0.0520682 0.0524588 0.056659 0.0570837 0.0524588 0.052846 0.0570837 0.057505 0.052846 0.0532299 0.057505 0.0579229 0.0532299 0.0536104 0.0579229 0.0583373 0.0536104 0.0539875 0.0583373 0.0587482 0.0539875 0.0543612 0.0587482 0.0591556 0.0543612 0.0547315 0.0591556 0.0595595 0.0547315 0.0550984 0.0595595 0.0599598 0.0550984 0.0554619 0.0599598 0.0603565 0.0554619 0.0558219 0.0603565 0.0607496 0.0558219 0.0561783 0.0607496 0.061139 0.0561783 0.0565313 0.061139 0.0615246 0.0565313 0.0568806 0.0615246 0.0619065 0.0568806 0.0572265 0.0619065 0.0622846 0.0572265 0.0575687 0.0622846 0.0626589 0.0575687 0.0579073 0.0626589 0.0630293 0.0579073 0.0582424 0.0630293 0.063396 0.0582424 0.0585739 0.063396 0.0637589 0.0585739 0.058902 0.0637589 0.064118 0.058902 0.0592266 0.064118 0.0644736 0.0592266 0.0595479 0.0644736 0.0648258 0.0595479 0.0598661 0.0648258 0.0651747 0.0598661 0.0601814 0.0651747 0.0655206 0.0601814 0.0604939 0.0655206 0.0658639 0.0604939 0.0608041 0.0658639 0.0662049 0.0608041 0.0611123 0.0662049 0.0665444 0.0611123 0.0614189 0.0665444 0.0668828 0.0614189 0.0617247 0.0668828 0.0672211 0.0617247 0.0620301 0.0672211 0.0675601 0.0620301 0.0623362 0.0675601 0.0679012 0.0623362 0.0626437 0.0679012 0.0682455 0.0626437 0.0629538 0.0682455 0.0685949 0.0629538 0.0632678 0.0685949 0.0689509 0.0632678 0.063587 0.0689509 0.0693158 0.063587 0.0639131 0.0693158 0.0696918 0.0639131 0.0642479 0.0696918 0.0700813 0.0642479 0.0645933 0.0700813 0.0704867 0.0645933 0.0649511 0.0704867 0.0709106 0.0649511 0.0653236 0.0709106 0.0713551 0.0653236 0.0657124 0.0713551 0.071822 0.0657124 0.0661193 0.071822 0.0723121 0.0661193 0.0665453 0.0723121 0.0728255 0.0665453 0.0669907 0.0728255 0.0733604 0.0669907 0.0674545 0.0733604 0.0739139 0.0674545 0.0679346 0.0739139 0.0744812 0.0679346 0.0684271 0.0744812 0.0750558 0.0684271 0.0689266 0.0750558 0.0756301 0.0689266 0.0694265 0.0756301 0.0761958 0.0694265 0.0699193 0.0761958 0.0767445 0.0699193 0.0703976 0.0767445 0.0772682 0.0703976 0.0708541 0.0772682 0.0777602 0.0708541 0.0712828 0.0777602 0.0782154 0.0712828 0.0716792 0.0782154 0.0786302 0.0716792 0.0720403 0.0786302 0.079003 0.0720403 0.0723644 0.079003 0.0793335 0.0723644 0.0726513 0.0793335 0.0796226 0.0726513 0.0729016 0.0796226 0.0798721 0.0729016 0.0731166 0.0798721 0.0800842 0.0731166 0.0732977 0.0800842 0.0802612 0.0732977 0.0734465 0.0802612 0.0804055 0.0734465 0.0735643 0.0804055 0.0805189 0.0735643 0.0736521 0.0805189 0.0806032 0.0736521 0.0737105 0.0806032 0.0806598 0.0737105 0.0737396 0.0806598 0.0806906 0.0737396 0.0737395 0.0806906 0.0806974 0.0737395 0.0737103 0.0806974 0.0806832 0.0737103 0.0736529 0.0806832 0.0806512 0.0736529 0.0735685 0.0806512 0.0806057 0.0735685 0.0734588 0.0806057 0.0805509 0.0734588 0.073325 0.0805509 0.080491 0.073325 0.0731681 0.080491 0.0804298 0.0731681 0.0729886 0.0804298 0.0803713 0.0729886 0.0727865 0.0803713 0.080321 0.0727865 0.0725714 0.080321 0.0802809 0.0725714 0.0723694 0.0802809 0.0802399 0.0723694 0.07218 0.0802399 0.0801823 0.07218 0.071973 0.0801823 0.0801164 0.071973 0.0717722 0.0801164 0.0800742 0.0717722 0.0716595 0.0800742 0.0800638 0.0716595 0.071653 0 0.000418586 0 0.000390615 0.000418586 0.000940482 0.000390615 0.000878863 0.000940482 0.00151948 0.000878863 0.0014255 0.00151948 0.00212717 0.0014255 0.00200141 0.00212717 0.00275437 0.00200141 0.00258976 0.00275437 0.00339543 0.00258976 0.00318311 0.00339543 0.00404604 0.00318311 0.00377838 0.00404604 0.00470268 0.00377838 0.00437445 0.00470268 0.00536254 0.00437445 0.00497088 0.00536254 0.00602335 0.00497088 0.00556734 0.00602335 0.00668331 0.00556734 0.00616343 0.00668331 0.00734101 0.00616343 0.00675863 0.00734101 0.00799533 0.00675863 0.00735233 0.00799533 0.00864542 0.00735233 0.00794392 0.00864542 0.00929064 0.00794392 0.00853282 0.00929064 0.00993051 0.00853282 0.00911847 0.00993051 0.0105647 0.00911847 0.00970041 0.0105647 0.0111929 0.00970041 0.0102782 0.0111929 0.0118151 0.0102782 0.0108516 0.0118151 0.0124311 0.0108516 0.0114204 0.0124311 0.0130409 0.0114204 0.0119842 0.0130409 0.0136447 0.0119842 0.0125431 0.0136447 0.0142423 0.0125431 0.013097 0.0142423 0.014834 0.013097 0.0136458 0.014834 0.0154199 0.0136458 0.0141895 0.0154199 0.0160002 0.0141895 0.0147283 0.0160002 0.016575 0.0147283 0.0152623 0.016575 0.0171445 0.0152623 0.0157915 0.0171445 0.017709 0.0157915 0.0163162 0.017709 0.0182687 0.0163162 0.0168364 0.0182687 0.0188238 0.0168364 0.0173524 0.0188238 0.0193746 0.0173524 0.0178644 0.0193746 0.0199213 0.0178644 0.0183726 0.0199213 0.0204642 0.0183726 0.0188771 0.0204642 0.0210036 0.0188771 0.0193782 0.0210036 0.0215396 0.0193782 0.0198762 0.0215396 0.0220725 0.0198762 0.0203712 0.0220725 0.0226026 0.0203712 0.0208633 0.0226026 0.02313 0.0208633 0.0213529 0.02313 0.023655 0.0213529 0.0218401 0.023655 0.0241778 0.0218401 0.0223251 0.0241778 0.0246986 0.0223251 0.022808 0.0246986 0.0252175 0.022808 0.0232891 0.0252175 0.0257347 0.0232891 0.0237684 0.0257347 0.0262504 0.0237684 0.0242461 0.0262504 0.0267647 0.0242461 0.0247223 0.0267647 0.0272777 0.0247223 0.0251971 0.0272777 0.0277895 0.0251971 0.0256707 0.0277895 0.0283002 0.0256707 0.0261431 0.0283002 0.0288099 0.0261431 0.0266144 0.0288099 0.0293187 0.0266144 0.0270846 0.0293187 0.0298266 0.0270846 0.0275538 0.0298266 0.0303336 0.0275538 0.028022 0.0303336 0.0308398 0.028022 0.0284893 0.0308398 0.0313452 0.0284893 0.0289557 0.0313452 0.0318498 0.0289557 0.0294212 0.0318498 0.0323535 0.0294212 0.0298856 0.0323535 0.0328564 0.0298856 0.0303492 0.0328564 0.0333583 0.0303492 0.0308117 0.0333583 0.0338593 0.0308117 0.0312732 0.0338593 0.0343594 0.0312732 0.0317336 0.0343594 0.0348583 0.0317336 0.0321928 0.0348583 0.0353561 0.0321928 0.0326508 0.0353561 0.0358526 0.0326508 0.0331075 0.0358526 0.0363478 0.0331075 0.0335628 0.0363478 0.0368416 0.0335628 0.0340166 0.0368416 0.0373338 0.0340166 0.0344689 0.0373338 0.0378244 0.0344689 0.0349195 0.0378244 0.0383131 0.0349195 0.0353682 0.0383131 0.0388 0.0353682 0.0358151 0.0388 0.0392849 0.0358151 0.03626 0.0392849 0.0397677 0.03626 0.0367028 0.0397677 0.0402482 0.0367028 0.0371433 0.0402482 0.0407263 0.0371433 0.0375815 0.0407263 0.0412019 0.0375815 0.0380173 0.0412019 0.041675 0.0380173 0.0384505 0.041675 0.0421453 0.0384505 0.038881 0.0421453 0.0426128 0.038881 0.0393088 0.0426128 0.0430774 0.0393088 0.0397338 0.0430774 0.043539 0.0397338 0.0401558 0.043539 0.0439975 0.0401558 0.0405748 0.0439975 0.0444528 0.0405748 0.0409908 0.0444528 0.0449049 0.0409908 0.0414036 0.0449049 0.0453537 0.0414036 0.0418132 0.0453537 0.0457991 0.0418132 0.0422196 0.0457991 0.0462412 0.0422196 0.0426227 0.0462412 0.0466799 0.0426227 0.0430225 0.0466799 0.0471151 0.0430225 0.0434189 0.0471151 0.0475469 0.0434189 0.043812 0.0475469 0.0479752 0.043812 0.0442017 0.0479752 0.0484 0.0442017 0.0445881 0.0484 0.0488213 0.0445881 0.044971 0.0488213 0.0492392 0.044971 0.0453506 0.0492392 0.0496536 0.0453506 0.0457268 0.0496536 0.0500646 0.0457268 0.0460997 0.0500646 0.0504721 0.0460997 0.0464692 0.0504721 0.0508762 0.0464692 0.0468354 0.0508762 0.0512769 0.0468354 0.0471982 0.0512769 0.0516743 0.0471982 0.0475578 0.0516743 0.0520682 0.0475578 0.047914 0.0520682 0.0524588 0.047914 0.048267 0.0524588 0.052846 0.048267 0.0486167 0.052846 0.0532299 0.0486167 0.0489631 0.0532299 0.0536104 0.0489631 0.0493063 0.0536104 0.0539875 0.0493063 0.0496462 0.0539875 0.0543612 0.0496462 0.0499827 0.0543612 0.0547315 0.0499827 0.050316 0.0547315 0.0550984 0.050316 0.050646 0.0550984 0.0554619 0.050646 0.0509726 0.0554619 0.0558219 0.0509726 0.0512959 0.0558219 0.0561783 0.0512959 0.0516159 0.0561783 0.0565313 0.0516159 0.0519324 0.0565313 0.0568806 0.0519324 0.0522456 0.0568806 0.0572265 0.0522456 0.0525553 0.0572265 0.0575687 0.0525553 0.0528617 0.0575687 0.0579073 0.0528617 0.0531646 0.0579073 0.0582424 0.0531646 0.0534642 0.0582424 0.0585739 0.0534642 0.0537605 0.0585739 0.058902 0.0537605 0.0540534 0.058902 0.0592266 0.0540534 0.0543432 0.0592266 0.0595479 0.0543432 0.0546299 0.0595479 0.0598661 0.0546299 0.0549136 0.0598661 0.0601814 0.0549136 0.0551945 0.0601814 0.0604939 0.0551945 0.0554728 0.0604939 0.0608041 0.0554728 0.0557488 0.0608041 0.0611123 0.0557488 0.0560229 0.0611123 0.0614189 0.0560229 0.0562953 0.0614189 0.0617247 0.0562953 0.0565665 0.0617247 0.0620301 0.0565665 0.056837 0.0620301 0.0623362 0.056837 0.0571076 0.0623362 0.0626437 0.0571076 0.0573787 0.0626437 0.0629538 0.0573787 0.0576513 0.0629538 0.0632678 0.0576513 0.0579264 0.0632678 0.063587 0.0579264 0.0582049 0.063587 0.0639131 0.0582049 0.058488 0.0639131 0.0642479 0.058488 0.0587772 0.0642479 0.0645933 0.0587772 0.059074 0.0645933 0.0649511 0.059074 0.0593802 0.0649511 0.0653236 0.0593802 0.0596976 0.0653236 0.0657124 0.0596976 0.0600281 0.0657124 0.0661193 0.0600281 