# vtk DataFile Version 3.0
#This file was generated by the deal.II library on 2021/2/10 at 3:14:04
ASCII
DATASET UNSTRUCTURED_GRID

POINTS 14400 double
0 -0.5 0
0.0166667 -0.5 0
0 -0.483333 0
0.0166667 -0.483333 0
0.0166667 -0.5 0
0.0333333 -0.5 0
0.0166667 -0.483333 0
0.0333333 -0.483333 0
0.0333333 -0.5 0
0.05 -0.5 0
0.0333333 -0.483333 0
0.05 -0.483333 0
0.05 -0.5 0
0.0666667 -0.5 0
0.05 -0.483333 0
0.0666667 -0.483333 0
0.0666667 -0.5 0
0.0833333 -0.5 0
0.0666667 -0.483333 0
0.0833333 -0.483333 0
0.0833333 -0.5 0
0.1 -0.5 0
0.0833333 -0.483333 0
0.1 -0.483333 0
0.1 -0.5 0
0.116667 -0.5 0
0.1 -0.483333 0
0.116667 -0.483333 0
0.116667 -0.5 0
0.133333 -0.5 0
0.116667 -0.483333 0
0.133333 -0.483333 0
0.133333 -0.5 0
0.15 -0.5 0
0.133333 -0.483333 0
0.15 -0.483333 0
0.15 -0.5 0
0.166667 -0.5 0
0.15 -0.483333 0
0.166667 -0.483333 0
0.166667 -0.5 0
0.183333 -0.5 0
0.166667 -0.483333 0
0.183333 -0.483333 0
0.183333 -0.5 0
0.2 -0.5 0
0.183333 -0.483333 0
0.2 -0.483333 0
0.2 -0.5 0
0.216667 -0.5 0
0.2 -0.483333 0
0.216667 -0.483333 0
0.216667 -0.5 0
0.233333 -0.5 0
0.216667 -0.483333 0
0.233333 -0.483333 0
0.233333 -0.5 0
0.25 -0.5 0
0.233333 -0.483333 0
0.25 -0.483333 0
0.25 -0.5 0
0.266667 -0.5 0
0.25 -0.483333 0
0.266667 -0.483333 0
0.266667 -0.5 0
0.283333 -0.5 0
0.266667 -0.483333 0
0.283333 -0.483333 0
0.283333 -0.5 0
0.3 -0.5 0
0.283333 -0.483333 0
0.3 -0.483333 0
0.3 -0.5 0
0.316667 -0.5 0
0.3 -0.483333 0
0.316667 -0.483333 0
0.316667 -0.5 0
0.333333 -0.5 0
0.316667 -0.483333 0
0.333333 -0.483333 0
0.333333 -0.5 0
0.35 -0.5 0
0.333333 -0.483333 0
0.35 -0.483333 0
0.35 -0.5 0
0.366667 -0.5 0
0.35 -0.483333 0
0.366667 -0.483333 0
0.366667 -0.5 0
0.383333 -0.5 0
0.366667 -0.483333 0
0.383333 -0.483333 0
0.383333 -0.5 0
0.4 -0.5 0
0.383333 -0.483333 0
0.4 -0.483333 0
0.4 -0.5 0
0.416667 -0.5 0
0.4 -0.483333 0
0.416667 -0.483333 0
0.416667 -0.5 0
0.433333 -0.5 0
0.416667 -0.483333 0
0.433333 -0.483333 0
0.433333 -0.5 0
0.45 -0.5 0
0.433333 -0.483333 0
0.45 -0.483333 0
0.45 -0.5 0
0.466667 -0.5 0
0.45 -0.483333 0
0.466667 -0.483333 0
0.466667 -0.5 0
0.483333 -0.5 0
0.466667 -0.483333 0
0.483333 -0.483333 0
0.483333 -0.5 0
0.5 -0.5 0
0.483333 -0.483333 0
0.5 -0.483333 0
0.5 -0.5 0
0.516667 -0.5 0
0.5 -0.483333 0
0.516667 -0.483333 0
0.516667 -0.5 0
0.533333 -0.5 0
0.516667 -0.483333 0
0.533333 -0.483333 0
0.533333 -0.5 0
0.55 -0.5 0
0.533333 -0.483333 0
0.55 -0.483333 0
0.55 -0.5 0
0.566667 -0.5 0
0.55 -0.483333 0
0.566667 -0.483333 0
0.566667 -0.5 0
0.583333 -0.5 0
0.566667 -0.483333 0
0.583333 -0.483333 0
0.583333 -0.5 0
0.6 -0.5 0
0.583333 -0.483333 0
0.6 -0.483333 0
0.6 -0.5 0
0.616667 -0.5 0
0.6 -0.483333 0
0.616667 -0.483333 0
0.616667 -0.5 0
0.633333 -0.5 0
0.616667 -0.483333 0
0.633333 -0.483333 0
0.633333 -0.5 0
0.65 -0.5 0
0.633333 -0.483333 0
0.65 -0.483333 0
0.65 -0.5 0
0.666667 -0.5 0
0.65 -0.483333 0
0.666667 -0.483333 0
0.666667 -0.5 0
0.683333 -0.5 0
0.666667 -0.483333 0
0.683333 -0.483333 0
0.683333 -0.5 0
0.7 -0.5 0
0.683333 -0.483333 0
0.7 -0.483333 0
0.7 -0.5 0
0.716667 -0.5 0
0.7 -0.483333 0
0.716667 -0.483333 0
0.716667 -0.5 0
0.733333 -0.5 0
0.716667 -0.483333 0
0.733333 -0.483333 0
0.733333 -0.5 0
0.75 -0.5 0
0.733333 -0.483333 0
0.75 -0.483333 0
0.75 -0.5 0
0.766667 -0.5 0
0.75 -0.483333 0
0.766667 -0.483333 0
0.766667 -0.5 0
0.783333 -0.5 0
0.766667 -0.483333 0
0.783333 -0.483333 0
0.783333 -0.5 0
0.8 -0.5 0
0.783333 -0.483333 0
0.8 -0.483333 0
0.8 -0.5 0
0.816667 -0.5 0
0.8 -0.483333 0
0.816667 -0.483333 0
0.816667 -0.5 0
0.833333 -0.5 0
0.816667 -0.483333 0
0.833333 -0.483333 0
0.833333 -0.5 0
0.85 -0.5 0
0.833333 -0.483333 0
0.85 -0.483333 0
0.85 -0.5 0
0.866667 -0.5 0
0.85 -0.483333 0
0.866667 -0.483333 0
0.866667 -0.5 0
0.883333 -0.5 0
0.866667 -0.483333 0
0.883333 -0.483333 0
0.883333 -0.5 0
0.9 -0.5 0
0.883333 -0.483333 0
0.9 -0.483333 0
0.9 -0.5 0
0.916667 -0.5 0
0.9 -0.483333 0
0.916667 -0.483333 0
0.916667 -0.5 0
0.933333 -0.5 0
0.916667 -0.483333 0
0.933333 -0.483333 0
0.933333 -0.5 0
0.95 -0.5 0
0.933333 -0.483333 0
0.95 -0.483333 0
0.95 -0.5 0
0.966667 -0.5 0
0.95 -0.483333 0
0.966667 -0.483333 0
0.966667 -0.5 0
0.983333 -0.5 0
0.966667 -0.483333 0
0.983333 -0.483333 0
0.983333 -0.5 0
1 -0.5 0
0.983333 -0.483333 0
1 -0.483333 0
0 -0.483333 0
0.0166667 -0.483333 0
0 -0.466667 0
0.0166667 -0.466667 0
0.0166667 -0.483333 0
0.0333333 -0.483333 0
0.0166667 -0.466667 0
0.0333333 -0.466667 0
0.0333333 -0.483333 0
0.05 -0.483333 0
0.0333333 -0.466667 0
0.05 -0.466667 0
0.05 -0.483333 0
0.0666667 -0.483333 0
0.05 -0.466667 0
0.0666667 -0.466667 0
0.0666667 -0.483333 0
0.0833333 -0.483333 0
0.0666667 -0.466667 0
0.0833333 -0.466667 0
0.0833333 -0.483333 0
0.1 -0.483333 0
0.0833333 -0.466667 0
0.1 -0.466667 0
0.1 -0.483333 0
0.116667 -0.483333 0
0.1 -0.466667 0
0.116667 -0.466667 0
0.116667 -0.483333 0
0.133333 -0.483333 0
0.116667 -0.466667 0
0.133333 -0.466667 0
0.133333 -0.483333 0
0.15 -0.483333 0
0.133333 -0.466667 0
0.15 -0.466667 0
0.15 -0.483333 0
0.166667 -0.483333 0
0.15 -0.466667 0
0.166667 -0.466667 0
0.166667 -0.483333 0
0.183333 -0.483333 0
0.166667 -0.466667 0
0.183333 -0.466667 0
0.183333 -0.483333 0
0.2 -0.483333 0
0.183333 -0.466667 0
0.2 -0.466667 0
0.2 -0.483333 0
0.216667 -0.483333 0
0.2 -0.466667 0
0.216667 -0.466667 0
0.216667 -0.483333 0
0.233333 -0.483333 0
0.216667 -0.466667 0
0.233333 -0.466667 0
0.233333 -0.483333 0
0.25 -0.483333 0
0.233333 -0.466667 0
0.25 -0.466667 0
0.25 -0.483333 0
0.266667 -0.483333 0
0.25 -0.466667 0
0.266667 -0.466667 0
0.266667 -0.483333 0
0.283333 -0.483333 0
0.266667 -0.466667 0
0.283333 -0.466667 0
0.283333 -0.483333 0
0.3 -0.483333 0
0.283333 -0.466667 0
0.3 -0.466667 0
0.3 -0.483333 0
0.316667 -0.483333 0
0.3 -0.466667 0
0.316667 -0.466667 0
0.316667 -0.483333 0
0.333333 -0.483333 0
0.316667 -0.466667 0
0.333333 -0.466667 0
0.333333 -0.483333 0
0.35 -0.483333 0
0.333333 -0.466667 0
0.35 -0.466667 0
0.35 -0.483333 0
0.366667 -0.483333 0
0.35 -0.466667 0
0.366667 -0.466667 0
0.366667 -0.483333 0
0.383333 -0.483333 0
0.366667 -0.466667 0
0.383333 -0.466667 0
0.383333 -0.483333 0
0.4 -0.483333 0
0.383333 -0.466667 0
0.4 -0.466667 0
0.4 -0.483333 0
0.416667 -0.483333 0
0.4 -0.466667 0
0.416667 -0.466667 0
0.416667 -0.483333 0
0.433333 -0.483333 0
0.416667 -0.466667 0
0.433333 -0.466667 0
0.433333 -0.483333 0
0.45 -0.483333 0
0.433333 -0.466667 0
0.45 -0.466667 0
0.45 -0.483333 0
0.466667 -0.483333 0
0.45 -0.466667 0
0.466667 -0.466667 0
0.466667 -0.483333 0
0.483333 -0.483333 0
0.466667 -0.466667 0
0.483333 -0.466667 0
0.483333 -0.483333 0
0.5 -0.483333 0
0.483333 -0.466667 0
0.5 -0.466667 0
0.5 -0.483333 0
0.516667 -0.483333 0
0.5 -0.466667 0
0.516667 -0.466667 0
0.516667 -0.483333 0
0.533333 -0.483333 0
0.516667 -0.466667 0
0.533333 -0.466667 0
0.533333 -0.483333 0
0.55 -0.483333 0
0.533333 -0.466667 0
0.55 -0.466667 0
0.55 -0.483333 0
0.566667 -0.483333 0
0.55 -0.466667 0
0.566667 -0.466667 0
0.566667 -0.483333 0
0.583333 -0.483333 0
0.566667 -0.466667 0
0.583333 -0.466667 0
0.583333 -0.483333 0
0.6 -0.483333 0
0.583333 -0.466667 0
0.6 -0.466667 0
0.6 -0.483333 0
0.616667 -0.483333 0
0.6 -0.466667 0
0.616667 -0.466667 0
0.616667 -0.483333 0
0.633333 -0.483333 0
0.616667 -0.466667 0
0.633333 -0.466667 0
0.633333 -0.483333 0
0.65 -0.483333 0
0.633333 -0.466667 0
0.65 -0.466667 0
0.65 -0.483333 0
0.666667 -0.483333 0
0.65 -0.466667 0
0.666667 -0.466667 0
0.666667 -0.483333 0
0.683333 -0.483333 0
0.666667 -0.466667 0
0.683333 -0.466667 0
0.683333 -0.483333 0
0.7 -0.483333 0
0.683333 -0.466667 0
0.7 -0.466667 0
0.7 -0.483333 0
0.716667 -0.483333 0
0.7 -0.466667 0
0.716667 -0.466667 0
0.716667 -0.483333 0
0.733333 -0.483333 0
0.716667 -0.466667 0
0.733333 -0.466667 0
0.733333 -0.483333 0
0.75 -0.483333 0
0.733333 -0.466667 0
0.75 -0.466667 0
0.75 -0.483333 0
0.766667 -0.483333 0
0.75 -0.466667 0
0.766667 -0.466667 0
0.766667 -0.483333 0
0.783333 -0.483333 0
0.766667 -0.466667 0
0.783333 -0.466667 0
0.783333 -0.483333 0
0.8 -0.483333 0
0.783333 -0.466667 0
0.8 -0.466667 0
0.8 -0.483333 0
0.816667 -0.483333 0
0.8 -0.466667 0
0.816667 -0.466667 0
0.816667 -0.483333 0
0.833333 -0.483333 0
0.816667 -0.466667 0
0.833333 -0.466667 0
0.833333 -0.483333 0
0.85 -0.483333 0
0.833333 -0.466667 0
0.85 -0.466667 0
0.85 -0.483333 0
0.866667 -0.483333 0
0.85 -0.466667 0
0.866667 -0.466667 0
0.866667 -0.483333 0
0.883333 -0.483333 0
0.866667 -0.466667 0
0.883333 -0.466667 0
0.883333 -0.483333 0
0.9 -0.483333 0
0.883333 -0.466667 0
0.9 -0.466667 0
0.9 -0.483333 0
0.916667 -0.483333 0
0.9 -0.466667 0
0.916667 -0.466667 0
0.916667 -0.483333 0
0.933333 -0.483333 0
0.916667 -0.466667 0
0.933333 -0.466667 0
0.933333 -0.483333 0
0.95 -0.483333 0
0.933333 -0.466667 0
0.95 -0.466667 0
0.95 -0.483333 0
0.966667 -0.483333 0
0.95 -0.466667 0
0.966667 -0.466667 0
0.966667 -0.483333 0
0.983333 -0.483333 0
0.966667 -0.466667 0
0.983333 -0.466667 0
0.983333 -0.483333 0
1 -0.483333 0
0.983333 -0.466667 0
1 -0.466667 0
0 -0.466667 0
0.0166667 -0.466667 0
0 -0.45 0
0.0166667 -0.45 0
0.0166667 -0.466667 0
0.0333333 -0.466667 0
0.0166667 -0.45 0
0.0333333 -0.45 0
0.0333333 -0.466667 0
0.05 -0.466667 0
0.0333333 -0.45 0
0.05 -0.45 0
0.05 -0.466667 0
0.0666667 -0.466667 0
0.05 -0.45 0
0.0666667 -0.45 0
0.0666667 -0.466667 0
0.0833333 -0.466667 0
0.0666667 -0.45 0
0.0833333 -0.45 0
0.0833333 -0.466667 0
0.1 -0.466667 0
0.0833333 -0.45 0
0.1 -0.45 0
0.1 -0.466667 0
0.116667 -0.466667 0
0.1 -0.45 0
0.116667 -0.45 0
0.116667 -0.466667 0
0.133333 -0.466667 0
0.116667 -0.45 0
0.133333 -0.45 0
0.133333 -0.466667 0
0.15 -0.466667 0
0.133333 -0.45 0
0.15 -0.45 0
0.15 -0.466667 0
0.166667 -0.466667 0
0.15 -0.45 0
0.166667 -0.45 0
0.166667 -0.466667 0
0.183333 -0.466667 0
0.166667 -0.45 0
0.183333 -0.45 0
0.183333 -0.466667 0
0.2 -0.466667 0
0.183333 -0.45 0
0.2 -0.45 0
0.2 -0.466667 0
0.216667 -0.466667 0
0.2 -0.45 0
0.216667 -0.45 0
0.216667 -0.466667 0
0.233333 -0.466667 0
0.216667 -0.45 0
0.233333 -0.45 0
0.233333 -0.466667 0
0.25 -0.466667 0
0.233333 -0.45 0
0.25 -0.45 0
[...]
POINT_DATA 14400
SCALARS x1_displacement double 1
LOOKUP_TABLE default
0 -0.000659254 0 -0.000255505 -0.000659254 -0.00105639 -0.000255505 -0.000538452 -0.00105639 -0.00128309 -0.000538452 -0.000736945 -0.00128309 -0.00139769 -0.000736945 -0.000853579 -0.00139769 -0.00142303 -0.000853579 -0.000897762 -0.00142303 -0.00137423 -0.000897762 -0.000878455 -0.00137423 -0.00126176 -0.000878455 -0.000803091 -0.00126176 -0.00109363 -0.000803091 -0.000677815 -0.00109363 -0.00087627 -0.000677815 -0.000507794 -0.00087627 -0.000615014 -0.000507794 -0.000297455 -0.000615014 -0.000314366 -0.000297455 -5.06436e-05 -0.000314366 2.17912e-05 -5.06436e-05 0.00022926 2.17912e-05 0.000390076 0.00022926 0.000539261 0.000390076 0.000787517 0.000539261 0.000876688 0.000787517 0.00121148 0.000876688 0.00123915 0.00121148 0.00165964 0.00123915 0.00162448 0.00165964 0.00212991 0.00162448 0.00203073 0.00212991 0.0026204 0.00203073 0.00245612 0.0026204 0.00312943 0.00245612 0.00289904 0.00312943 0.00365546 0.00289904 0.00335797 0.00365546 0.00419705 0.00335797 0.00383153 0.00419705 0.00475287 0.00383153 0.00431836 0.00475287 0.00532162 0.00431836 0.00481719 0.00532162 0.00590203 0.00481719 0.00532674 0.00590203 0.0064928 0.00532674 0.00584573 0.0064928 0.0070926 0.00584573 0.00637283 0.0070926 0.00769998 0.00637283 0.00690665 0.00769998 0.00831339 0.00690665 0.00744567 0.00831339 0.00893109 0.00744567 0.00798828 0.00893109 0.00955119 0.00798828 0.00853272 0.00955119 0.0101716 0.00853272 0.00907706 0.0101716 0.0107899 0.00907706 0.00961918 0.0107899 0.0114035 0.00961918 0.0101568 0.0114035 0.0120097 0.0101568 0.0106876 0.0120097 0.0126055 0.0106876 0.0112089 0.0126055 0.0131879 0.0112089 0.011718 0.0131879 0.0137536 0.011718 0.0122124 0.0137536 0.0142996 0.0122124 0.0126894 0.0142996 0.0148231 0.0126894 0.0131465 0.0148231 0.0153217 0.0131465 0.0135815 0.0153217 0.0157933 0.0135815 0.0139926 0.0157933 0.016237 0.0139926 0.0143784 0.016237 0.0166524 0.0143784 0.014738 0.0166524 0.0170401 0.014738 0.0150714 0.0170401 0.0174014 0.0150714 0.0153787 0.0174014 0.0177381 0.0153787 0.0156604 0.0177381 0.0180518 0.0156604 0.0159168 0.0180518 0.0183441 0.0159168 0.0161478 0.0183441 0.0186167 0.0161478 0.0163528 0.0186167 0.0188726 0.0163528 0.0165315 0.0188726 0.0191151 0.0165315 0.0166841 0.0191151 0.0193458 0.0166841 0.0168099 0.0193458 0.0195612 0.0168099 0.0169073 0.0195612 0.0197445 0.0169073 0.0169748 0.0197445 0.0198668 0.0169748 0.0170018 0.0198668 0.0199053 0.0170018 0.0169792 0.0199053 0.0198745 0.0169792 0.0169227 0.0198745 0.0198229 0.0169227 0.0168684 0.0198229 0.0197927 0.0168684 0.0168424 0.0197927 0.0197868 0.0168424 0.0168419 0 -0.000255505 0 -0.000146387 -0.000255505 -0.000538452 -0.000146387 -0.000284205 -0.000538452 -0.000736945 -0.000284205 -0.000410334 -0.000736945 -0.000853579 -0.000410334 -0.000495334 -0.000853579 -0.000897762 -0.000495334 -0.00053308 -0.000897762 -0.000878455 -0.00053308 -0.000523687 -0.000878455 -0.000803091 -0.000523687 -0.000469641 -0.000803091 -0.000677815 -0.000469641 -0.000374078 -0.000677815 -0.000507794 -0.000374078 -0.000240206 -0.000507794 -0.000297455 -0.000240206 -7.11012e-05 -0.000297455 -5.06436e-05 -7.11012e-05 0.00013036 -5.06436e-05 0.00022926 0.00013036 0.00036152 0.00022926 0.000539261 0.00036152 0.000619929 0.000539261 0.000876688 0.000619929 0.000903338 0.000876688 0.00123915 0.000903338 0.00120968 0.00123915 0.00162448 0.00120968 0.00153707 0.00162448 0.00203073 0.00153707 0.00188374 0.00203073 0.00245612 0.00188374 0.00224811 0.00245612 0.00289904 0.00224811 0.00262866 0.00289904 0.00335797 0.00262866 0.00302402 0.00335797 0.00383153 0.00302402 0.00343286 0.00383153 0.00431836 0.00343286 0.00385394 0.00431836 0.00481719 0.00385394 0.00428604 0.00481719 0.00532674 0.00428604 0.00472796 0.00532674 0.00584573 0.00472796 0.0051785 0.00584573 0.00637283 0.0051785 0.0056364 0.00637283 0.00690665 0.0056364 0.00610039 0.00690665 0.00744567 0.00610039 0.00656909 0.00744567 0.00798828 0.00656909 0.00704103 0.00798828 0.00853272 0.00704103 0.00751463 0.00853272 0.00907706 0.00751463 0.00798817 0.00907706 0.00961918 0.00798817 0.00845978 0.00961918 0.0101568 0.00845978 0.00892747 0.0101568 0.0106876 0.00892747 0.0093891 0.0106876 0.0112089 0.0093891 0.00984241 0.0112089 0.011718 0.00984241 0.010285 0.011718 0.0122124 0.010285 0.0107146 0.0122124 0.0126894 0.0107146 0.0111286 0.0126894 0.0131465 0.0111286 0.0115247 0.0131465 0.0135815 0.0115247 0.0119006 0.0135815 0.0139926 0.0119006 0.0122544 0.0139926 0.0143784 0.0122544 0.0125842 0.0143784 0.014738 0.0125842 0.0128889 0.014738 0.0150714 0.0128889 0.0131675 0.0150714 0.0153787 0.0131675 0.0134198 0.0153787 0.0156604 0.0134198 0.0136457 0.0156604 0.0159168 0.0136457 0.0138449 0.0159168 0.0161478 0.0138449 0.0140153 0.0161478 0.0163528 0.0140153 0.0141535 0.0163528 0.0165315 0.0141535 0.0142565 0.0165315 0.0166841 0.0142565 0.0143229 0.0166841 0.0168099 0.0143229 0.0143535 0.0168099 0.0169073 0.0143535 0.014347 0.0169073 0.0169748 0.014347 0.0143044 0.0169748 0.0170018 0.0143044 0.0142302 0.0170018 0.0169792 0.0142302 0.0141046 0.0169792 0.0169227 0.0141046 0.0139628 0.0169227 0.0168684 0.0139628 0.0138802 0.0168684 0.0168424 0.0138802 0.0138605 0.0168424 0.0168419 0.0138605 0.0138791 0 -0.000146387 0 -9.00248e-05 -0.000146387 -0.000284205 -9.00248e-05 -0.000164673 -0.000284205 -0.000410334 -0.000164673 -0.000229544 -0.000410334 -0.000495334 -0.000229544 -0.00027744 -0.000495334 -0.00053308 -0.00027744 -0.000298337 -0.00053308 -0.000523687 -0.000298337 -0.000287889 -0.000523687 -0.000469641 -0.000287889 -0.000244801 -0.000469641 -0.000374078 -0.000244801 -0.000169478 -0.000374078 -0.000240206 -0.000169478 -6.317e-05 -0.000240206 -7.11012e-05 -6.317e-05 7.24713e-05 -7.11012e-05 0.00013036 7.24713e-05 0.000235629 0.00013036 0.00036152 0.000235629 0.000424444 0.00036152 0.000619929 0.000424444 0.00063709 0.000619929 0.000903338 0.00063709 0.000871803 0.000903338 0.00120968 0.000871803 0.00112691 0.00120968 0.00153707 0.00112691 0.00140082 0.00153707 0.00188374 0.00140082 0.00169205 0.00188374 0.00224811 0.00169205 0.00199921 0.00224811 0.00262866 0.00199921 0.00232099 0.00262866 0.00302402 0.00232099 0.00265615 0.00302402 0.00343286 0.00265615 0.00300353 0.00343286 0.00385394 0.00300353 0.003362 0.00385394 0.00428604 0.003362 0.00373048 0.00428604 0.00472796 0.00373048 0.0041079 0.00472796 0.0051785 0.0041079 0.00449319 0.0051785 0.0056364 0.00449319 0.00488525 0.0056364 0.00610039 0.00488525 0.00528294 0.00610039 0.00656909 0.00528294 0.00568508 0.00656909 0.00704103 0.00568508 0.00609037 0.00704103 0.00751463 0.00609037 0.00649746 0.00751463 0.00798817 0.00649746 0.00690483 0.00798817 0.00845978 0.00690483 0.00731088 0.00845978 0.00892747 0.00731088 0.00771383 0.00892747 0.0093891 0.00771383 0.00811179 0.0093891 0.00984241 0.00811179 0.00850272 0.00984241 0.010285 0.00850272 0.00888445 0.010285 0.0107146 0.00888445 0.00925468 0.0107146 0.0111286 0.00925468 0.00961106 0.0111286 0.0115247 0.00961106 0.00995116 0.0115247 0.0119006 0.00995116 0.0102726 0.0119006 0.0122544 0.0102726 0.0105729 0.0122544 0.0125842 0.0105729 0.0108501 0.0125842 0.0128889 0.0108501 0.0111022 0.0128889 0.0131675 0.0111022 0.011328 0.0131675 0.0134198 0.011328 0.0115268 0.0134198 0.0136457 0.0115268 0.011699 0.0136457 0.0138449 0.011699 0.0118443 0.0138449 0.0140153 0.0118443 0.0119602 0.0140153 0.0141535 0.0119602 0.01204 0.0141535 0.0142565 0.01204 0.012076 0.0142565 0.0143229 0.012076 0.0120672 0.0143229 0.0143535 0.0120672 0.0120123 0.0143535 0.014347 0.0120123 0.0119114 0.014347 0.0143044 0.0119114 0.0117507 0.0143044 0.0142302 0.0117507 0.0114332 0.0142302 0.0141046 0.0114332 0.0110929 0.0141046 0.0139628 0.0110929 0.010932 0.0139628 0.0138802 0.010932 0.0108817 0.0138802 0.0138605 0.0108817 0.0108889 0.0138605 0.0138791 0.0108889 0.0109354 0 -9.00248e-05 0 -6.26781e-05 -9.00248e-05 -0.000164673 -6.26781e-05 -0.000104631 -0.000164673 -0.000229544 -0.000104631 -0.000136011 -0.000229544 -0.00027744 -0.000136011 -0.000156521 -0.00027744 -0.000298337 -0.000156521 -0.000161754 -0.000298337 -0.000287889 -0.000161754 -0.00014719 -0.000287889 -0.000244801 -0.00014719 -0.000110157 -0.000244801 -0.000169478 -0.000110157 -4.94598e-05 -0.000169478 -6.317e-05 -4.94598e-05 3.50607e-05 -6.317e-05 7.24713e-05 3.50607e-05 0.000142913 7.24713e-05 0.000235629 0.000142913 0.000273212 0.000235629 0.000424444 0.000273212 0.000424846 0.000424444 0.00063709 0.000424846 0.000596583 0.00063709 0.000871803 0.000596583 0.00078715 0.000871803 0.00112691 0.00078715 0.000995269 0.00112691 0.00140082 0.000995269 0.00121969 0.00140082 0.00169205 0.00121969 0.00145921 0.00169205 0.00199921 0.00145921 0.00171268 0.00199921 0.00232099 0.00171268 0.001979 0.00232099 0.00265615 0.001979 0.00225714 0.00265615 0.00300353 0.00225714 0.00254611 0.00300353 0.003362 0.00254611 0.00284495 0.003362 0.00373048 0.00284495 0.00315277 0.00373048 0.0041079 0.00315277 0.00346865 0.0041079 0.00449319 0.00346865 0.0037917 0.00449319 0.00488525 0.0037917 0.00412101 0.00488525 0.00528294 0.00412101 0.00445565 0.00528294 0.00568508 0.00445565 0.00479462 0.00568508 0.00609037 0.00479462 0.00513688 0.00609037 0.00649746 0.00513688 0.00548126 0.00649746 0.00690483 0.00548126 0.00582652 0.00690483 0.00731088 0.00582652 0.00617127 0.00731088 0.00771383 0.00617127 0.00651397 0.00771383 0.00811179 0.00651397 0.00685294 0.00811179 0.00850272 0.00685294 0.0071863 0.00850272 0.00888445 0.0071863 0.00751202 0.00888445 0.00925468 0.00751202 0.00782789 0.00925468 0.00961106 0.00782789 0.00813153 0.00961106 0.00995116 0.00813153 0.00842041 0.00995116 0.0102726 0.00842041 0.00869192 0.0102726 0.0105729 0.00869192 0.00894337 0.0105729 0.0108501 0.00894337 0.00917218 0.0108501 0.0111022 0.00917218 0.00937596 0.0111022 0.011328 0.00937596 0.00955285 0.011328 0.0115268 0.00955285 0.00970194 0.0115268 0.011699 0.00970194 0.00982378 0.011699 0.0118443 0.00982378 0.00992045 0.0118443 0.0119602 0.00992045 0.00999128 0.0119602 0.01204 0.00999128 0.0100279 0.01204 0.012076 0.0100279 0.0100153 0.012076 0.0120672 0.0100153 0.00994713 0.0120672 0.0120123 0.00994713 0.00983566 0.0120123 0.0119114 0.00983566 0.00961095 0.0119114 0.0117507 0.00961095 0.00909922 0.0117507 0.0114332 0.00909922 0.00833248 0.0114332 0.0110929 0.00833248 0.00796052 0.0110929 0.010932 0.00796052 0.00792138 0.010932 0.0108817 0.00792138 0.00794756 0.0108817 0.0108889 0.00794756 0.00799216 0.0108889 0.0109354 0.00799216 0.0080674 0 -6.26781e-05 0 -5.03732e-05 -6.26781e-05 -0.000104631 -5.03732e-05 -7.85149e-05 -0.000104631 -0.000136011 -7.85149e-05 -9.3995e-05 -0.000136011 -0.000156521 -9.3995e-05 -0.000100205 -0.000156521 -0.000161754 -0.000100205 -9.62105e-05 -0.000161754 -0.00014719 -9.62105e-05 -7.95363e-05 -0.00014719 -0.000110157 -7.95363e-05 -4.77954e-05 -0.000110157 -4.94598e-05 -4.77954e-05 6.36776e-07 -4.94598e-05 3.50607e-05 6.36776e-07 6.66163e-05 3.50607e-05 0.000142913 6.66163e-05 0.000150379 0.000142913 0.000273212 0.000150379 0.000251708 0.000273212 0.000424846 0.000251708 0.000370081 0.000424846 0.000596583 0.000370081 0.000504773 0.000596583 0.00078715 0.000504773 0.00065494 0.00078715 0.000995269 0.00065494 0.000819676 0.000995269 0.00121969 0.000819676 0.000998054 0.00121969 0.00145921 0.000998054 0.00118915 0.00145921 0.00171268 0.00118915 0.00139207 0.00171268 0.001979 0.00139207 0.00160595 0.001979 0.00225714 0.00160595 0.00182996 0.00225714 0.00254611 0.00182996 0.00206332 0.00254611 0.00284495 0.00206332 0.0023053 0.00284495 0.00315277 0.0023053 0.00255515 0.00315277 0.00346865 0.00255515 0.00281221 0.00346865 0.0037917 0.00281221 0.00307577 0.0037917 0.00412101 0.00307577 0.00334514 0.00412101 0.00445565 0.00334514 0.00361961 0.00445565 0.00479462 0.00361961 0.00389844 0.00479462 0.00513688 0.00389844 0.00418079 0.00513688 0.00548126 0.00418079 0.00446578 0.00548126 0.00582652 0.00446578 0.00475238 0.00582652 0.00617127 0.00475238 0.00503947 0.00617127 0.00651397 0.00503947 0.00532573 0.00651397 0.00685294 0.00532573 0.00560967 0.00685294 0.0071863 0.00560967 0.00588958 0.0071863 0.00751202 0.00588958 0.00616354 0.00751202 0.00782789 0.00616354 0.0064294 0.00782789 0.00813153 0.0064294 0.00668477 0.00813153 0.00842041 0.00668477 0.00692703 0.00842041 0.00869192 0.00692703 0.00715338 0.00869192 0.00894337 0.00715338 0.0073609 0.00894337 0.00917218 0.0073609 0.00754663 0.00917218 0.00937596 0.00754663 0.00770775 0.00937596 0.00955285 0.00770775 0.0078418 0.00955285 0.00970194 0.0078418 0.00794712 0.00970194 0.00982378 0.00794712 0.00802378 0.00982378 0.00992045 0.00802378 0.00807533 0.00992045 0.00999128 0.00807533 0.00810947 0.00999128 0.0100279 0.00810947 0.00811903 0.0100279 0.0100153 0.00811903 0.0080846 0.0100153 0.00994713 0.0080846 0.00799272 0.00994713 0.00983566 0.00799272 0.00768176 0.00983566 0.00961095 0.00768176 0.00694718 0.00961095 0.00909922 0.00694718 0.00589098 0.00909922 0.00833248 0.00589098 0.00517344 0.00833248 0.00796052 0.00517344 0.0050698 0.00796052 0.00792138 0.0050698 0.00511898 0.00792138 0.00794756 0.00511898 0.00517434 0.00794756 0.00799216 0.00517434 0.00523711 0.00799216 0.0080674 0.00523711 0.00532896 0 -5.03732e-05 0 -4.76176e-05 -5.03732e-05 -7.85149e-05 -4.76176e-05 -7.30768e-05 -7.85149e-05 -9.3995e-05 -7.30768e-05 -8.46984e-05 -9.3995e-05 -0.000100205 -8.46984e-05 -8.69911e-05 -0.000100205 -9.62105e-05 -8.69911e-05 -8.11943e-05 -9.62105e-05 -7.95363e-05 -8.11943e-05 -6.66065e-05 -7.95363e-05 -4.77954e-05 -6.66065e-05 -4.18441e-05 -4.77954e-05 6.36776e-07 -4.18441e-05 -5.57753e-06 6.36776e-07 6.66163e-05 -5.57753e-06 4.31531e-05 6.66163e-05 0.000150379 4.31531e-05 0.000104883 0.000150379 0.000251708 0.000104883 0.000179772 0.000251708 0.000370081 0.000179772 0.000267682 0.000370081 0.000504773 0.000267682 0.000368257 0.000504773 0.00065494 0.000368257 0.000480995 0.00065494 0.000819676 0.000480995 0.000605302 0.000819676 0.000998054 0.000605302 0.000740535 0.000998054 0.00118915 0.000740535 0.000886034 0.00118915 0.00139207 0.000886034 0.00104114 0.00139207 0.00160595 0.00104114 0.00120524 0.00160595 0.00182996 0.00120524 0.0013777 0.00182996 0.00206332 0.0013777 0.00155798 0.00206332 0.0023053 0.00155798 0.00174555 0.0023053 0.00255515 0.00174555 0.00193989 0.00255515 0.00281221 0.00193989 0.00214054 0.00281221 0.00307577 0.00214054 0.00234705 0.00307577 0.00334514 0.00234705 0.00255895 0.00334514 0.00361961 0.00255895 0.00277577 0.00361961 0.00389844 0.00277577 0.00299703 0.00389844 0.00418079 0.00299703 0.00322215 0.00418079 0.00446578 0.00322215 0.00345052 0.00446578 0.00475238 0.00345052 0.00368137 0.00475238 0.00503947 0.00368137 0.00391382 0.00503947 0.00532573 0.00391382 0.0041468 0.00532573 0.00560967 0.0041468 0.00437901 0.00560967 0.00588958 0.00437901 0.00460893 0.00588958 0.00616354 0.00460893 0.00483475 0.00616354 0.0064294 0.00483475 0.00505439 0.0064294 0.00668477 0.00505439 0.00526548 0.00668477 0.00692703 0.00526548 0.00546539 0.00692703 0.00715338 0.00546539 0.00565121 0.00715338 0.0073609 0.00565121 0.00581989 0.0073609 0.00754663 0.00581989 0.00596831 0.00754663 0.00770775 0.00596831 0.00609346 0.00770775 0.0078418 0.00609346 0.00619265 0.0078418 0.00794712 0.00619265 0.00626369 0.00794712 0.00802378 0.00626369 0.00630513 0.00802378 0.00807533 0.00630513 0.00631801 0.00807533 0.00810947 0.00631801 0.00630974 0.00810947 0.00811903 0.00630974 0.00629333 0.00811903 0.0080846 0.00629333 0.00621315 0.0080846 0.00799272 0.00621315 0.00584057 0.00799272 0.00768176 0.00584057 0.00487738 0.00768176 0.00694718 0.00487738 0.00358891 0.00694718 0.00589098 0.00358891 0.00270406 0.00589098 0.00517344 0.00270406 0.00251013 0.00517344 0.0050698 0.00251013 0.0025374 0.0050698 0.00511898 0.0025374 0.00256414 0.00511898 0.00517434 0.00256414 0.00260121 0.00517434 0.00523711 0.00260121 0.00265676 0.00523711 0.00532896 0.00265676 0.00274843 0 -4.76176e-05 0 -5.12721e-05 -4.76176e-05 -7.30768e-05 -5.12721e-05 -8.13236e-05 -7.30768e-05 -8.46984e-05 -8.13236e-05 -9.70987e-05 -8.46984e-05 -8.69911e-05 -9.70987e-05 -0.000103245 -8.69911e-05 -8.11943e-05 -0.000103245 -0.000102067 -8.11943e-05 -6.66065e-05 -0.000102067 -9.4144e-05 -6.66065e-05 -4.18441e-05 -9.4144e-05 -7.90921e-05 -4.18441e-05 -5.57753e-06 -7.90921e-05 -5.61829e-05 -5.57753e-06 4.31531e-05 -5.61829e-05 -2.47101e-05 4.31531e-05 0.000104883 -2.47101e-05 1.58398e-05 0.000104883 0.000179772 1.58398e-05 6.57414e-05 0.000179772 0.000267682 6.57414e-05 0.000125046 0.000267682 0.000368257 0.000125046 0.000193621 0.000368257 0.000480995 0.000193621 0.000271201 0.000480995 0.000605302 0.000271201 0.000357427 0.000605302 0.000740535 0.000357427 0.000451889 0.000740535 0.000886034 0.000451889 0.000554155 0.000886034 0.00104114 0.000554155 0.000663793 0.00104114 0.00120524 0.000663793 0.00078039 0.00120524 0.0013777 0.00078039 0.000903562 0.0013777 0.00155798 0.000903562 0.00103296 0.00155798 0.00174555 0.00103296 0.00116828 0.00174555 0.00193989 0.00116828 0.00130924 0.00193989 0.00214054 0.00130924 0.0014556 0.00214054 0.00234705 0.0014556 0.00160715 0.00234705 0.00255895 0.00160715 0.00176368 0.00255895 0.00277577 0.00176368 0.00192498 0.00277577 0.00299703 0.00192498 0.00209082 0.00299703 0.00322215 0.00209082 0.00226091 0.00322215 0.00345052 0.00226091 0.0024349 0.00345052 0.00368137 0.0024349 0.00261233 0.00368137 0.00391382 0.00261233 0.00279256 0.00391382 0.0041468 0.00279256 0.00297477 0.0041468 0.00437901 0.00297477 0.00315791 0.00437901 0.00460893 0.00315791 0.00334062 0.00460893 0.00483475 0.00334062 0.00352125 0.00483475 0.00505439 0.00352125 0.00369783 0.00505439 0.00526548 0.00369783 0.00386805 0.00526548 0.00546539 0.00386805 0.00402932 0.00546539 0.00565121 0.00402932 0.00417876 0.00565121 0.00581989 0.00417876 0.00431331 0.00581989 0.00596831 0.00431331 0.00442992 0.00596831 0.00609346 0.00442992 0.0045258 0.00609346 0.00619265 0.0045258 0.0045988 0.00619265 0.00626369 0.0045988 0.00464769 0.00626369 0.00630513 0.00464769 0.00467214 0.00630513 0.00631801 0.00467214 0.00467325 0.00631801 0.00630974 0.00467325 0.0046468 0.00630974 0.00629333 0.0046468 0.00443663 0.00629333 0.00621315 0.00443663 0.00387584 0.00621315 0.00584057 0.00387584 0.00281008 0.00584057 0.00487738 0.00281008 0.00139275 0.00487738 0.00358891 0.00139275 0.000439871 0.00358891 0.00270406 0.000439871 0.000206842 0.00270406 0.00251013 0.000206842 0.000211622 0.00251013 0.0025374 0.000211622 0.000202558 0.0025374 0.00256414 0.000202558 0.000193445 0.00256414 0.00260121 0.000193445 0.000204161 0.00260121 0.00265676 0.000204161 0.000242649 0.00265676 0.00274843 0.000242649 0.000321954 0 -5.12721e-05 0 -5.94696e-05 -5.12721e-05 -8.13236e-05 -5.94696e-05 -9.90467e-05 -8.13236e-05 -9.70987e-05 -9.90467e-05 -0.000124456 -9.70987e-05 -0.000103245 -0.000124456 -0.000140047 -0.000103245 -0.000102067 -0.000140047 -0.000148571 -0.000102067 -9.4144e-05 -0.000148571 -0.000151399 -9.4144e-05 -7.90921e-05 -0.000151399 -0.000148952 -7.90921e-05 -5.61829e-05 -0.000148952 -0.000141136 -5.61829e-05 -2.47101e-05 -0.000141136 -0.000127657 -2.47101e-05 1.58398e-05 -0.000127657 -0.00010822 1.58398e-05 6.57414e-05 -0.00010822 -8.26223e-05 6.57414e-05 0.000125046 -8.26223e-05 -5.07874e-05 0.000125046 0.000193621 -5.07874e-05 -1.27553e-05 0.000193621 0.000271201 -1.27553e-05 3.13397e-05 0.000271201 0.000357427 3.13397e-05 8.1298e-05 0.000357427 0.000451889 8.1298e-05 0.000136884 0.000451889 0.000554155 0.000136884 0.00019785 0.000554155 0.000663793 0.00019785 0.000263957 0.000663793 0.00078039 0.000263957 0.000334993 0.00078039 0.000903562 0.000334993 0.000410778 0.000903562 0.00103296 0.000410778 0.000491175 0.00103296 0.00116828 0.000491175 0.000576093 0.00116828 0.00130924 0.000576093 0.000665486 0.00130924 0.0014556 0.000665486 0.000759346 0.0014556 0.00160715 0.000759346 0.000857701 0.00160715 0.00176368 0.000857701 0.000960599 0.00176368 0.00192498 0.000960599 0.00106809 0.00192498 0.00209082 0.00106809 0.00118023 0.00209082 0.00226091 0.00118023 0.00129701 0.00226091 0.0024349 0.00129701 0.00141836 0.0024349 0.0026