# vtk DataFile Version 3.0
#This file was generated by the deal.II library on 2021/2/10 at 3:13:03
ASCII
DATASET UNSTRUCTURED_GRID

POINTS 14400 double
0 -0.5 0
0.0166667 -0.5 0
0 -0.483333 0
0.0166667 -0.483333 0
0.0166667 -0.5 0
0.0333333 -0.5 0
0.0166667 -0.483333 0
0.0333333 -0.483333 0
0.0333333 -0.5 0
0.05 -0.5 0
0.0333333 -0.483333 0
0.05 -0.483333 0
0.05 -0.5 0
0.0666667 -0.5 0
0.05 -0.483333 0
0.0666667 -0.483333 0
0.0666667 -0.5 0
0.0833333 -0.5 0
0.0666667 -0.483333 0
0.0833333 -0.483333 0
0.0833333 -0.5 0
0.1 -0.5 0
0.0833333 -0.483333 0
0.1 -0.483333 0
0.1 -0.5 0
0.116667 -0.5 0
0.1 -0.483333 0
0.116667 -0.483333 0
0.116667 -0.5 0
0.133333 -0.5 0
0.116667 -0.483333 0
0.133333 -0.483333 0
0.133333 -0.5 0
0.15 -0.5 0
0.133333 -0.483333 0
0.15 -0.483333 0
0.15 -0.5 0
0.166667 -0.5 0
0.15 -0.483333 0
0.166667 -0.483333 0
0.166667 -0.5 0
0.183333 -0.5 0
0.166667 -0.483333 0
0.183333 -0.483333 0
0.183333 -0.5 0
0.2 -0.5 0
0.183333 -0.483333 0
0.2 -0.483333 0
0.2 -0.5 0
0.216667 -0.5 0
0.2 -0.483333 0
0.216667 -0.483333 0
0.216667 -0.5 0
0.233333 -0.5 0
0.216667 -0.483333 0
0.233333 -0.483333 0
0.233333 -0.5 0
0.25 -0.5 0
0.233333 -0.483333 0
0.25 -0.483333 0
0.25 -0.5 0
0.266667 -0.5 0
0.25 -0.483333 0
0.266667 -0.483333 0
0.266667 -0.5 0
0.283333 -0.5 0
0.266667 -0.483333 0
0.283333 -0.483333 0
0.283333 -0.5 0
0.3 -0.5 0
0.283333 -0.483333 0
0.3 -0.483333 0
0.3 -0.5 0
0.316667 -0.5 0
0.3 -0.483333 0
0.316667 -0.483333 0
0.316667 -0.5 0
0.333333 -0.5 0
0.316667 -0.483333 0
0.333333 -0.483333 0
0.333333 -0.5 0
0.35 -0.5 0
0.333333 -0.483333 0
0.35 -0.483333 0
0.35 -0.5 0
0.366667 -0.5 0
0.35 -0.483333 0
0.366667 -0.483333 0
0.366667 -0.5 0
0.383333 -0.5 0
0.366667 -0.483333 0
0.383333 -0.483333 0
0.383333 -0.5 0
0.4 -0.5 0
0.383333 -0.483333 0
0.4 -0.483333 0
0.4 -0.5 0
0.416667 -0.5 0
0.4 -0.483333 0
0.416667 -0.483333 0
0.416667 -0.5 0
0.433333 -0.5 0
0.416667 -0.483333 0
0.433333 -0.483333 0
0.433333 -0.5 0
0.45 -0.5 0
0.433333 -0.483333 0
0.45 -0.483333 0
0.45 -0.5 0
0.466667 -0.5 0
0.45 -0.483333 0
0.466667 -0.483333 0
0.466667 -0.5 0
0.483333 -0.5 0
0.466667 -0.483333 0
0.483333 -0.483333 0
0.483333 -0.5 0
0.5 -0.5 0
0.483333 -0.483333 0
0.5 -0.483333 0
0.5 -0.5 0
0.516667 -0.5 0
0.5 -0.483333 0
0.516667 -0.483333 0
0.516667 -0.5 0
0.533333 -0.5 0
0.516667 -0.483333 0
0.533333 -0.483333 0
0.533333 -0.5 0
0.55 -0.5 0
0.533333 -0.483333 0
0.55 -0.483333 0
0.55 -0.5 0
0.566667 -0.5 0
0.55 -0.483333 0
0.566667 -0.483333 0
0.566667 -0.5 0
0.583333 -0.5 0
0.566667 -0.483333 0
0.583333 -0.483333 0
0.583333 -0.5 0
0.6 -0.5 0
0.583333 -0.483333 0
0.6 -0.483333 0
0.6 -0.5 0
0.616667 -0.5 0
0.6 -0.483333 0
0.616667 -0.483333 0
0.616667 -0.5 0
0.633333 -0.5 0
0.616667 -0.483333 0
0.633333 -0.483333 0
0.633333 -0.5 0
0.65 -0.5 0
0.633333 -0.483333 0
0.65 -0.483333 0
0.65 -0.5 0
0.666667 -0.5 0
0.65 -0.483333 0
0.666667 -0.483333 0
0.666667 -0.5 0
0.683333 -0.5 0
0.666667 -0.483333 0
0.683333 -0.483333 0
0.683333 -0.5 0
0.7 -0.5 0
0.683333 -0.483333 0
0.7 -0.483333 0
0.7 -0.5 0
0.716667 -0.5 0
0.7 -0.483333 0
0.716667 -0.483333 0
0.716667 -0.5 0
0.733333 -0.5 0
0.716667 -0.483333 0
0.733333 -0.483333 0
0.733333 -0.5 0
0.75 -0.5 0
0.733333 -0.483333 0
0.75 -0.483333 0
0.75 -0.5 0
0.766667 -0.5 0
0.75 -0.483333 0
0.766667 -0.483333 0
0.766667 -0.5 0
0.783333 -0.5 0
0.766667 -0.483333 0
0.783333 -0.483333 0
0.783333 -0.5 0
0.8 -0.5 0
0.783333 -0.483333 0
0.8 -0.483333 0
0.8 -0.5 0
0.816667 -0.5 0
0.8 -0.483333 0
0.816667 -0.483333 0
0.816667 -0.5 0
0.833333 -0.5 0
0.816667 -0.483333 0
0.833333 -0.483333 0
0.833333 -0.5 0
0.85 -0.5 0
0.833333 -0.483333 0
0.85 -0.483333 0
0.85 -0.5 0
0.866667 -0.5 0
0.85 -0.483333 0
0.866667 -0.483333 0
0.866667 -0.5 0
0.883333 -0.5 0
0.866667 -0.483333 0
0.883333 -0.483333 0
0.883333 -0.5 0
0.9 -0.5 0
0.883333 -0.483333 0
0.9 -0.483333 0
0.9 -0.5 0
0.916667 -0.5 0
0.9 -0.483333 0
0.916667 -0.483333 0
0.916667 -0.5 0
0.933333 -0.5 0
0.916667 -0.483333 0
0.933333 -0.483333 0
0.933333 -0.5 0
0.95 -0.5 0
0.933333 -0.483333 0
0.95 -0.483333 0
0.95 -0.5 0
0.966667 -0.5 0
0.95 -0.483333 0
0.966667 -0.483333 0
0.966667 -0.5 0
0.983333 -0.5 0
0.966667 -0.483333 0
0.983333 -0.483333 0
0.983333 -0.5 0
1 -0.5 0
0.983333 -0.483333 0
1 -0.483333 0
0 -0.483333 0
0.0166667 -0.483333 0
0 -0.466667 0
0.0166667 -0.466667 0
0.0166667 -0.483333 0
0.0333333 -0.483333 0
0.0166667 -0.466667 0
0.0333333 -0.466667 0
0.0333333 -0.483333 0
0.05 -0.483333 0
0.0333333 -0.466667 0
0.05 -0.466667 0
0.05 -0.483333 0
0.0666667 -0.483333 0
0.05 -0.466667 0
0.0666667 -0.466667 0
0.0666667 -0.483333 0
0.0833333 -0.483333 0
0.0666667 -0.466667 0
0.0833333 -0.466667 0
0.0833333 -0.483333 0
0.1 -0.483333 0
0.0833333 -0.466667 0
0.1 -0.466667 0
0.1 -0.483333 0
0.116667 -0.483333 0
0.1 -0.466667 0
0.116667 -0.466667 0
0.116667 -0.483333 0
0.133333 -0.483333 0
0.116667 -0.466667 0
0.133333 -0.466667 0
0.133333 -0.483333 0
0.15 -0.483333 0
0.133333 -0.466667 0
0.15 -0.466667 0
0.15 -0.483333 0
0.166667 -0.483333 0
0.15 -0.466667 0
0.166667 -0.466667 0
0.166667 -0.483333 0
0.183333 -0.483333 0
0.166667 -0.466667 0
0.183333 -0.466667 0
0.183333 -0.483333 0
0.2 -0.483333 0
0.183333 -0.466667 0
0.2 -0.466667 0
0.2 -0.483333 0
0.216667 -0.483333 0
0.2 -0.466667 0
0.216667 -0.466667 0
0.216667 -0.483333 0
0.233333 -0.483333 0
0.216667 -0.466667 0
0.233333 -0.466667 0
0.233333 -0.483333 0
0.25 -0.483333 0
0.233333 -0.466667 0
0.25 -0.466667 0
0.25 -0.483333 0
0.266667 -0.483333 0
0.25 -0.466667 0
0.266667 -0.466667 0
0.266667 -0.483333 0
0.283333 -0.483333 0
0.266667 -0.466667 0
0.283333 -0.466667 0
0.283333 -0.483333 0
0.3 -0.483333 0
0.283333 -0.466667 0
0.3 -0.466667 0
0.3 -0.483333 0
0.316667 -0.483333 0
0.3 -0.466667 0
0.316667 -0.466667 0
0.316667 -0.483333 0
0.333333 -0.483333 0
0.316667 -0.466667 0
0.333333 -0.466667 0
0.333333 -0.483333 0
0.35 -0.483333 0
0.333333 -0.466667 0
0.35 -0.466667 0
0.35 -0.483333 0
0.366667 -0.483333 0
0.35 -0.466667 0
0.366667 -0.466667 0
0.366667 -0.483333 0
0.383333 -0.483333 0
0.366667 -0.466667 0
0.383333 -0.466667 0
0.383333 -0.483333 0
0.4 -0.483333 0
0.383333 -0.466667 0
0.4 -0.466667 0
0.4 -0.483333 0
0.416667 -0.483333 0
0.4 -0.466667 0
0.416667 -0.466667 0
0.416667 -0.483333 0
0.433333 -0.483333 0
0.416667 -0.466667 0
0.433333 -0.466667 0
0.433333 -0.483333 0
0.45 -0.483333 0
0.433333 -0.466667 0
0.45 -0.466667 0
0.45 -0.483333 0
0.466667 -0.483333 0
0.45 -0.466667 0
0.466667 -0.466667 0
0.466667 -0.483333 0
0.483333 -0.483333 0
0.466667 -0.466667 0
0.483333 -0.466667 0
0.483333 -0.483333 0
0.5 -0.483333 0
0.483333 -0.466667 0
0.5 -0.466667 0
0.5 -0.483333 0
0.516667 -0.483333 0
0.5 -0.466667 0
0.516667 -0.466667 0
0.516667 -0.483333 0
0.533333 -0.483333 0
0.516667 -0.466667 0
0.533333 -0.466667 0
0.533333 -0.483333 0
0.55 -0.483333 0
0.533333 -0.466667 0
0.55 -0.466667 0
0.55 -0.483333 0
0.566667 -0.483333 0
0.55 -0.466667 0
0.566667 -0.466667 0
0.566667 -0.483333 0
0.583333 -0.483333 0
0.566667 -0.466667 0
0.583333 -0.466667 0
0.583333 -0.483333 0
0.6 -0.483333 0
0.583333 -0.466667 0
0.6 -0.466667 0
0.6 -0.483333 0
0.616667 -0.483333 0
0.6 -0.466667 0
0.616667 -0.466667 0
0.616667 -0.483333 0
0.633333 -0.483333 0
0.616667 -0.466667 0
0.633333 -0.466667 0
0.633333 -0.483333 0
0.65 -0.483333 0
0.633333 -0.466667 0
0.65 -0.466667 0
0.65 -0.483333 0
0.666667 -0.483333 0
0.65 -0.466667 0
0.666667 -0.466667 0
0.666667 -0.483333 0
0.683333 -0.483333 0
0.666667 -0.466667 0
0.683333 -0.466667 0
0.683333 -0.483333 0
0.7 -0.483333 0
0.683333 -0.466667 0
0.7 -0.466667 0
0.7 -0.483333 0
0.716667 -0.483333 0
0.7 -0.466667 0
0.716667 -0.466667 0
0.716667 -0.483333 0
0.733333 -0.483333 0
0.716667 -0.466667 0
0.733333 -0.466667 0
0.733333 -0.483333 0
0.75 -0.483333 0
0.733333 -0.466667 0
0.75 -0.466667 0
0.75 -0.483333 0
0.766667 -0.483333 0
0.75 -0.466667 0
0.766667 -0.466667 0
0.766667 -0.483333 0
0.783333 -0.483333 0
0.766667 -0.466667 0
0.783333 -0.466667 0
0.783333 -0.483333 0
0.8 -0.483333 0
0.783333 -0.466667 0
0.8 -0.466667 0
0.8 -0.483333 0
0.816667 -0.483333 0
0.8 -0.466667 0
0.816667 -0.466667 0
0.816667 -0.483333 0
0.833333 -0.483333 0
0.816667 -0.466667 0
0.833333 -0.466667 0
0.833333 -0.483333 0
0.85 -0.483333 0
0.833333 -0.466667 0
0.85 -0.466667 0
0.85 -0.483333 0
0.866667 -0.483333 0
0.85 -0.466667 0
0.866667 -0.466667 0
0.866667 -0.483333 0
0.883333 -0.483333 0
0.866667 -0.466667 0
0.883333 -0.466667 0
0.883333 -0.483333 0
0.9 -0.483333 0
0.883333 -0.466667 0
0.9 -0.466667 0
0.9 -0.483333 0
0.916667 -0.483333 0
0.9 -0.466667 0
0.916667 -0.466667 0
0.916667 -0.483333 0
0.933333 -0.483333 0
0.916667 -0.466667 0
0.933333 -0.466667 0
0.933333 -0.483333 0
0.95 -0.483333 0
0.933333 -0.466667 0
0.95 -0.466667 0
0.95 -0.483333 0
0.966667 -0.483333 0
0.95 -0.466667 0
0.966667 -0.466667 0
0.966667 -0.483333 0
0.983333 -0.483333 0
0.966667 -0.466667 0
0.983333 -0.466667 0
0.983333 -0.483333 0
1 -0.483333 0
0.983333 -0.466667 0
1 -0.466667 0
0 -0.466667 0
0.0166667 -0.466667 0
0 -0.45 0
0.0166667 -0.45 0
0.0166667 -0.466667 0
0.0333333 -0.466667 0
0.0166667 -0.45 0
0.0333333 -0.45 0
0.0333333 -0.466667 0
0.05 -0.466667 0
0.0333333 -0.45 0
0.05 -0.45 0
0.05 -0.466667 0
0.0666667 -0.466667 0
0.05 -0.45 0
0.0666667 -0.45 0
0.0666667 -0.466667 0
0.0833333 -0.466667 0
0.0666667 -0.45 0
0.0833333 -0.45 0
0.0833333 -0.466667 0
0.1 -0.466667 0
0.0833333 -0.45 0
0.1 -0.45 0
0.1 -0.466667 0
0.116667 -0.466667 0
0.1 -0.45 0
0.116667 -0.45 0
0.116667 -0.466667 0
0.133333 -0.466667 0
0.116667 -0.45 0
0.133333 -0.45 0
0.133333 -0.466667 0
0.15 -0.466667 0
0.133333 -0.45 0
0.15 -0.45 0
0.15 -0.466667 0
0.166667 -0.466667 0
0.15 -0.45 0
0.166667 -0.45 0
0.166667 -0.466667 0
0.183333 -0.466667 0
0.166667 -0.45 0
0.183333 -0.45 0
0.183333 -0.466667 0
0.2 -0.466667 0
0.183333 -0.45 0
0.2 -0.45 0
0.2 -0.466667 0
0.216667 -0.466667 0
0.2 -0.45 0
0.216667 -0.45 0
0.216667 -0.466667 0
0.233333 -0.466667 0
0.216667 -0.45 0
0.233333 -0.45 0
0.233333 -0.466667 0
0.25 -0.466667 0
0.233333 -0.45 0
0.25 -0.45 0
[...]
POINT_DATA 14400
SCALARS x1_displacement double 1
LOOKUP_TABLE default
0 -0.000381156 0 -0.000163507 -0.000381156 -0.000619293 -0.000163507 -0.000348356 -0.000619293 -0.000767362 -0.000348356 -0.000488557 -0.000767362 -0.00085584 -0.000488557 -0.000584141 -0.00085584 -0.000894014 -0.000584141 -0.000638534 -0.000894014 -0.000887124 -0.000638534 -0.000654934 -0.000887124 -0.00083883 -0.000654934 -0.000636196 -0.00083883 -0.000753019 -0.000636196 -0.000585298 -0.000753019 -0.000634697 -0.000585298 -0.00050553 -0.000634697 -0.00049096 -0.00050553 -0.000399993 -0.00049096 -0.000332702 -0.000399993 -0.000269499 -0.000332702 -0.000177457 -0.000269499 -0.000118076 -0.000177457 -5.29854e-05 -0.000118076 3.72302e-05 -5.29854e-05 0.000299447 3.72302e-05 0.000216792 0.000299447 0.000537143 0.000216792 0.000378509 0.000537143 0.000783739 0.000378509 0.000566519 0.000783739 0.00103045 0.000566519 0.000770711 0.00103045 0.00127572 0.000770711 0.00098285 0.00127572 0.00154856 0.00098285 0.00119008 0.00154856 0.00195288 0.00119008 0.00145924 0.00195288 0.00242172 0.00145924 0.00188247 0.00242172 0.00282839 0.00188247 0.00214839 0.00282839 0.00315649 0.00214839 0.00234155 0.00315649 0.00363088 0.00234155 0.00257619 0.00363088 0.00424031 0.00257619 0.00306712 0.00424031 0.00441343 0.00306712 0.00326001 0.00441343 0.00458826 0.00326001 0.00345476 0.00458826 0.00478928 0.00345476 0.00364425 0.00478928 0.00500289 0.00364425 0.00382338 0.00500289 0.00521827 0.00382338 0.0039956 0.00521827 0.0054298 0.0039956 0.00416203 0.0054298 0.0056344 0.00416203 0.00432236 0.0056344 0.00582966 0.00432236 0.00447561 0.00582966 0.00601335 0.00447561 0.00462051 0.00601335 0.00618354 0.00462051 0.00475591 0.00618354 0.00633911 0.00475591 0.00488116 0.00633911 0.00648021 0.00488116 0.00499631 0.00648021 0.00660881 0.00499631 0.00510243 0.00660881 0.00672914 0.00510243 0.00520177 0.00672914 0.00684784 0.00520177 0.00529794 0.00684784 0.00697336 0.00529794 0.00539595 0.00697336 0.00711371 0.00539595 0.00550218 0.00711371 0.00727162 0.00550218 0.00562537 0.00727162 0.00743687 0.00562537 0.00577032 0.00743687 0.00759028 0.00577032 0.00592564 0.00759028 0.00810655 0.00592564 0.00611749 0.00810655 0.00855075 0.00611749 0.00629083 0.00855075 0.00915547 0.00629083 0.00650188 0.00915547 0.00949185 0.00650188 0.00669809 0.00949185 0.00976876 0.00669809 0.0068601 0.00976876 0.0100504 0.0068601 0.00697609 0.0100504 0.0103317 0.00697609 0.0070474 0.0103317 0.010615 0.0070474 0.00708066 0.010615 0.0108743 0.00708066 0.00706984 0.0108743 0.0110651 0.00706984 0.00700853 0.0110651 0.0111203 0.00700853 0.0068949 0.0111203 0.0110326 0.0068949 0.00676216 0.0110326 0.0109032 0.00676216 0.00666141 0.0109032 0.0108291 0.00666141 0.00661914 0.0108291 0.0108143 0.00661914 0.0066225 0 -0.000163507 0 -0.000108969 -0.000163507 -0.000348356 -0.000108969 -0.000220653 -0.000348356 -0.000488557 -0.000220653 -0.000330002 -0.000488557 -0.000584141 -0.000330002 -0.000417765 -0.000584141 -0.000638534 -0.000417765 -0.000478375 -0.000638534 -0.000654934 -0.000478375 -0.000510079 -0.000654934 -0.000636196 -0.000510079 -0.000512943 -0.000636196 -0.000585298 -0.000512943 -0.000488069 -0.000585298 -0.00050553 -0.000488069 -0.000437254 -0.00050553 -0.000399993 -0.000437254 -0.000362629 -0.000399993 -0.000269499 -0.000362629 -0.000267755 -0.000269499 -0.000118076 -0.000267755 -0.000161506 -0.000118076 3.72302e-05 -0.000161506 -5.0923e-05 3.72302e-05 0.000216792 -5.0923e-05 6.74522e-05 0.000216792 0.000378509 6.74522e-05 0.000198987 0.000378509 0.000566519 0.000198987 0.000339161 0.000566519 0.000770711 0.000339161 0.000494833 0.000770711 0.00098285 0.000494833 0.000665623 0.00098285 0.00119008 0.000665623 0.000840327 0.00119008 0.00145924 0.000840327 0.00102516 0.00145924 0.00188247 0.00102516 0.00124876 0.00188247 0.00214839 0.00124876 0.00144547 0.00214839 0.00234155 0.00144547 0.00162857 0.00234155 0.00257619 0.00162857 0.00182265 0.00257619 0.00306712 0.00182265 0.00204589 0.00306712 0.00326001 0.00204589 0.0022034 0.00326001 0.00345476 0.0022034 0.00236239 0.00345476 0.00364425 0.00236239 0.00251554 0.00364425 0.00382338 0.00251554 0.00265535 0.00382338 0.0039956 0.00265535 0.00278527 0.0039956 0.00416203 0.00278527 0.00290895 0.00416203 0.00432236 0.00290895 0.00302794 0.00432236 0.00447561 0.00302794 0.00314221 0.00447561 0.00462051 0.00314221 0.00325088 0.00462051 0.00475591 0.00325088 0.00335287 0.00475591 0.00488116 0.00335287 0.00344728 0.00488116 0.00499631 0.00344728 0.00353353 0.00499631 0.00510243 0.00353353 0.00361136 0.00510243 0.00520177 0.00361136 0.00368099 0.00520177 0.00529794 0.00368099 0.00374358 0.00529794 0.00539595 0.00374358 0.00380205 0.00539595 0.00550218 0.00380205 0.00386135 0.00550218 0.00562537 0.00386135 0.00392603 0.00562537 0.00577032 0.00392603 0.003994 0.00577032 0.00592564 0.003994 0.00405637 0.00592564 0.00611749 0.00405637 0.00410626 0.00611749 0.00629083 0.00410626 0.0041405 0.00629083 0.00650188 0.0041405 0.00413731 0.00650188 0.00669809 0.00413731 0.00411757 0.00669809 0.0068601 0.00411757 0.00408748 0.0068601 0.00697609 0.00408748 0.0040106 0.00697609 0.0070474 0.0040106 0.00387636 0.0070474 0.00708066 0.00387636 0.00367137 0.00708066 0.00706984 0.00367137 0.00339055 0.00706984 0.00700853 0.00339055 0.0030521 0.00700853 0.0068949 0.0030521 0.00266946 0.0068949 0.00676216 0.00266946 0.00245577 0.00676216 0.00666141 0.00245577 0.00236358 0.00666141 0.00661914 0.00236358 0.00236114 0.00661914 0.0066225 0.00236114 0.00240928 0 -0.000108969 0 -8.30617e-05 -0.000108969 -0.000220653 -8.30617e-05 -0.000167486 -0.000220653 -0.000330002 -0.000167486 -0.000252702 -0.000330002 -0.000417765 -0.000252702 -0.000331136 -0.000417765 -0.000478375 -0.000331136 -0.000394067 -0.000478375 -0.000510079 -0.000394067 -0.000436495 -0.000510079 -0.000512943 -0.000436495 -0.00045582 -0.000512943 -0.000488069 -0.00045582 -0.000451364 -0.000488069 -0.000437254 -0.000451364 -0.000424142 -0.000437254 -0.000362629 -0.000424142 -0.000377039 -0.000362629 -0.000267755 -0.000377039 -0.000315539 -0.000267755 -0.000161506 -0.000315539 -0.000244845 -0.000161506 -5.0923e-05 -0.000244845 -0.000166805 -5.0923e-05 6.74522e-05 -0.000166805 -8.22734e-05 6.74522e-05 0.000198987 -8.22734e-05 5.92156e-06 0.000198987 0.000339161 5.92156e-06 9.89526e-05 0.000339161 0.000494833 9.89526e-05 0.000199215 0.000494833 0.000665623 0.000199215 0.000306716 0.000665623 0.000840327 0.000306716 0.000418523 0.000840327 0.00102516 0.000418523 0.000535235 0.00102516 0.00124876 0.000535235 0.000656444 0.00124876 0.00144547 0.000656444 0.000777552 0.00144547 0.00162857 0.000777552 0.000896973 0.00162857 0.00182265 0.000896973 0.00101941 0.00182265 0.00204589 0.00101941 0.00113123 0.00204589 0.0022034 0.00113123 0.00123158 0.0022034 0.00236239 0.00123158 0.0013262 0.00236239 0.00251554 0.0013262 0.00141854 0.00251554 0.00265535 0.00141854 0.00150555 0.00265535 0.00278527 0.00150555 0.0015877 0.00278527 0.00290895 0.0015877 0.00166724 0.00290895 0.00302794 0.00166724 0.00174538 0.00302794 0.00314221 0.00174538 0.00182184 0.00314221 0.00325088 0.00182184 0.00189541 0.00325088 0.00335287 0.00189541 0.0019646 0.00335287 0.00344728 0.0019646 0.00202811 0.00344728 0.00353353 0.00202811 0.00208474 0.00353353 0.00361136 0.00208474 0.00213303 0.00361136 0.00368099 0.00213303 0.00217116 0.00368099 0.00374358 0.00217116 0.00219775 0.00374358 0.00380205 0.00219775 0.0022132 0.00380205 0.00386135 0.0022132 0.00222042 0.00386135 0.00392603 0.00222042 0.0022217 0.00392603 0.003994 0.0022217 0.00221386 0.003994 0.00405637 0.00221386 0.00218984 0.00405637 0.00410626 0.00218984 0.00214275 0.00410626 0.0041405 0.00214275 0.00205303 0.0041405 0.00413731 0.00205303 0.00190312 0.00413731 0.00411757 0.00190312 0.0016758 0.00411757 0.00408748 0.0016758 0.0013978 0.00408748 0.0040106 0.0013978 0.00112681 0.0040106 0.00387636 0.00112681 0.000842717 0.00387636 0.00367137 0.000842717 0.000400963 0.00367137 0.00339055 0.000400963 -0.000196409 0.00339055 0.0030521 -0.000196409 -0.000847818 0.0030521 0.00266946 -0.000847818 -0.0015874 0.00266946 0.00245577 -0.0015874 -0.00182626 0.00245577 0.00236358 -0.00182626 -0.00187579 0.00236358 0.00236114 -0.00187579 -0.00183525 0.00236114 0.00240928 -0.00183525 -0.00176087 0 -8.30617e-05 0 -7.26695e-05 -8.30617e-05 -0.000167486 -7.26695e-05 -0.000146756 -0.000167486 -0.000252702 -0.000146756 -0.00022368 -0.000252702 -0.000331136 -0.00022368 -0.000298914 -0.000331136 -0.000394067 -0.000298914 -0.00036586 -0.000394067 -0.000436495 -0.00036586 -0.000418325 -0.000436495 -0.00045582 -0.000418325 -0.000452013 -0.00045582 -0.000451364 -0.000452013 -0.000464867 -0.000451364 -0.000424142 -0.000464867 -0.000457344 -0.000424142 -0.000377039 -0.000457344 -0.000432466 -0.000377039 -0.000315539 -0.000432466 -0.00039497 -0.000315539 -0.000244845 -0.00039497 -0.000349651 -0.000244845 -0.000166805 -0.000349651 -0.000300581 -0.000166805 -8.22734e-05 -0.000300581 -0.000251788 -8.22734e-05 5.92156e-06 -0.000251788 -0.00020597 5.92156e-06 9.89526e-05 -0.00020597 -0.00016246 9.89526e-05 0.000199215 -0.00016246 -0.000117945 0.000199215 0.000306716 -0.000117945 -7.12715e-05 0.000306716 0.000418523 -7.12715e-05 -2.29458e-05 0.000418523 0.000535235 -2.29458e-05 2.73713e-05 0.000535235 0.000656444 2.73713e-05 7.68259e-05 0.000656444 0.000777552 7.68259e-05 0.000120508 0.000777552 0.000896973 0.000120508 0.000160904 0.000896973 0.00101941 0.000160904 0.000203692 0.00101941 0.00113123 0.000203692 0.000248039 0.00113123 0.00123158 0.000248039 0.000285312 0.00123158 0.0013262 0.000285312 0.000314696 0.0013262 0.00141854 0.000314696 0.000341149 0.00141854 0.00150555 0.000341149 0.000368554 0.00150555 0.0015877 0.000368554 0.000398472 0.0015877 0.00166724 0.000398472 0.000431864 0.00166724 0.00174538 0.000431864 0.000468533 0.00174538 0.00182184 0.000468533 0.000507201 0.00182184 0.00189541 0.000507201 0.000545825 0.00189541 0.0019646 0.000545825 0.000582353 0.0019646 0.00202811 0.000582353 0.000615359 0.00202811 0.00208474 0.000615359 0.00064365 0.00208474 0.00213303 0.00064365 0.000665085 0.00213303 0.00217116 0.000665085 0.000676087 0.00217116 0.00219775 0.000676087 0.000672525 0.00219775 0.0022132 0.000672525 0.000651803 0.0022132 0.00222042 0.000651803 0.00061545 0.00222042 0.0022217 0.00061545 0.0005692 0.0022217 0.00221386 0.0005692 0.000511819 0.00221386 0.00218984 0.000511819 0.000422931 0.00218984 0.00214275 0.000422931 0.000265799 0.00214275 0.00205303 0.000265799 4.51318e-05 0.00205303 0.00190312 4.51318e-05 -0.000219696 0.00190312 0.0016758 -0.000219696 -0.000658508 0.0016758 0.0013978 -0.000658508 -0.00124913 0.0013978 0.00112681 -0.00124913 -0.00173709 0.00112681 0.000842717 -0.00173709 -0.00216155 0.000842717 0.000400963 -0.00216155 -0.0028247 0.000400963 -0.000196409 -0.0028247 -0.00371626 -0.000196409 -0.000847818 -0.00371626 -0.00470202 -0.000847818 -0.0015874 -0.00470202 -0.00559307 -0.0015874 -0.00182626 -0.00559307 -0.00586191 -0.00182626 -0.00187579 -0.00586191 -0.00590844 -0.00187579 -0.00183525 -0.00590844 -0.00587694 -0.00183525 -0.00176087 -0.00587694 -0.00595019 0 -7.26695e-05 0 -6.94496e-05 -7.26695e-05 -0.000146756 -6.94496e-05 -0.000143045 -0.000146756 -0.00022368 -0.000143045 -0.000221195 -0.00022368 -0.000298914 -0.000221195 -0.000300723 -0.000298914 -0.00036586 -0.000300723 -0.000375968 -0.00036586 -0.000418325 -0.000375968 -0.000440576 -0.000418325 -0.000452013 -0.000440576 -0.00048906 -0.000452013 -0.000464867 -0.00048906 -0.000518163 -0.000464867 -0.000457344 -0.000518163 -0.000527712 -0.000457344 -0.000432466 -0.000527712 -0.000520565 -0.000432466 -0.00039497 -0.000520565 -0.000501566 -0.00039497 -0.000349651 -0.000501566 -0.000476279 -0.000349651 -0.000300581 -0.000476279 -0.000450665 -0.000300581 -0.000251788 -0.000450665 -0.0004314 -0.000251788 -0.00020597 -0.0004314 -0.000424017 -0.00020597 -0.00016246 -0.000424017 -0.000427744 -0.00016246 -0.000117945 -0.000427744 -0.000436044 -0.000117945 -7.12715e-05 -0.000436044 -0.000444999 -7.12715e-05 -2.29458e-05 -0.000444999 -0.00045696 -2.29458e-05 2.73713e-05 -0.00045696 -0.000475333 2.73713e-05 7.68259e-05 -0.000475333 -0.000501223 7.68259e-05 0.000120508 -0.000501223 -0.000534227 0.000120508 0.000160904 -0.000534227 -0.000570624 0.000160904 0.000203692 -0.000570624 -0.0006043 0.000203692 0.000248039 -0.0006043 -0.000633418 0.000248039 0.000285312 -0.000633418 -0.00066304 0.000285312 0.000314696 -0.00066304 -0.000697997 0.000314696 0.000341149 -0.000697997 -0.000735285 0.000341149 0.000368554 -0.000735285 -0.000767261 0.000368554 0.000398472 -0.000767261 -0.000789673 0.000398472 0.000431864 -0.000789673 -0.000803026 0.000431864 0.000468533 -0.000803026 -0.000808893 0.000468533 0.000507201 -0.000808893 -0.000809115 0.000507201 0.000545825 -0.000809115 -0.000806351 0.000545825 0.000582353 -0.000806351 -0.00080326 0.000582353 0.000615359 -0.00080326 -0.00080064 0.000615359 0.00064365 -0.00080064 -0.000798319 0.00064365 0.000665085 -0.000798319 -0.000798189 0.000665085 0.000676087 -0.000798189 -0.000805287 0.000676087 0.000672525 -0.000805287 -0.00082584 0.000672525 0.000651803 -0.00082584 -0.00086476 0.000651803 0.00061545 -0.00086476 -0.000921428 0.00061545 0.0005692 -0.000921428 -0.000986957 0.0005692 0.000511819 -0.000986957 -0.00107488 0.000511819 0.000422931 -0.00107488 -0.00122419 0.000422931 0.000265799 -0.00122419 -0.00152668 0.000265799 4.51318e-05 -0.00152668 -0.00195097 4.51318e-05 -0.000219696 -0.00195097 -0.0023511 -0.000219696 -0.000658508 -0.0023511 -0.00299102 -0.000658508 -0.00124913 -0.00299102 -0.00381492 -0.00124913 -0.00173709 -0.00381492 -0.00464633 -0.00173709 -0.00216155 -0.00464633 -0.00554238 -0.00216155 -0.0028247 -0.00554238 -0.00647585 -0.0028247 -0.00371626 -0.00647585 -0.00740864 -0.00371626 -0.00470202 -0.00740864 -0.00843582 -0.00470202 -0.00559307 -0.00843582 -0.00921649 -0.00559307 -0.00586191 -0.00921649 -0.00947425 -0.00586191 -0.00590844 -0.00947425 -0.00953818 -0.00590844 -0.00587694 -0.00953818 -0.00952478 -0.00587694 -0.00595019 -0.00952478 -0.0101819 0 -6.94496e-05 0 -6.9462e-05 -6.94496e-05 -0.000143045 -6.9462e-05 -0.000146981 -0.000143045 -0.000221195 -0.000146981 -0.000231734 -0.000221195 -0.000300723 -0.000231734 -0.000320759 -0.000300723 -0.000375968 -0.000320759 -0.00040883 -0.000375968 -0.000440576 -0.00040883 -0.000489141 -0.000440576 -0.00048906 -0.000489141 -0.000554836 -0.00048906 -0.000518163 -0.000554836 -0.000601133 -0.000518163 -0.000527712 -0.000601133 -0.000627126 -0.000527712 -0.000520565 -0.000627126 -0.000635944 -0.000520565 -0.000501566 -0.000635944 -0.000633065 -0.000501566 -0.000476279 -0.000633065 -0.000624386 -0.000476279 -0.000450665 -0.000624386 -0.000615876 -0.000450665 -0.0004314 -0.000615876 -0.000615192 -0.0004314 -0.000424017 -0.000615192 -0.000633285 -0.000424017 -0.000427744 -0.000633285 -0.000676224 -0.000427744 -0.000436044 -0.000676224 -0.000733053 -0.000436044 -0.000444999 -0.000733053 -0.000795432 -0.000444999 -0.00045696 -0.000795432 -0.000871269 -0.00045696 -0.000475333 -0.000871269 -0.00096309 -0.000475333 -0.000501223 -0.00096309 -0.00106728 -0.000501223 -0.000534227 -0.00106728 -0.00118064 -0.000534227 -0.000570624 -0.00118064 -0.00129931 -0.000570624 -0.0006043 -0.00129931 -0.00141717 -0.0006043 -0.000633418 -0.00141717 -0.00152725 -0.000633418 -0.00066304 -0.00152725 -0.00162859 -0.00066304 -0.000697997 -0.00162859 -0.00173006 -0.000697997 -0.000735285 -0.00173006 -0.00182813 -0.000735285 -0.000767261 -0.00182813 -0.00191188 -0.000767261 -0.000789673 -0.00191188 -0.00198131 -0.000789673 -0.000803026 -0.00198131 -0.00204099 -0.000803026 -0.000808893 -0.00204099 -0.00209231 -0.000808893 -0.000809115 -0.00209231 -0.00213483 -0.000809115 -0.000806351 -0.00213483 -0.00217092 -0.000806351 -0.00080326 -0.00217092 -0.00220387 -0.00080326 -0.00080064 -0.00220387 -0.00223289 -0.00080064 -0.000798319 -0.00223289 -0.00225413 -0.000798319 -0.000798189 -0.00225413 -0.00226836 -0.000798189 -0.000805287 -0.00226836 -0.00228288 -0.000805287 -0.00082584 -0.00228288 -0.00230524 -0.00082584 -0.00086476 -0.00230524 -0.00233756 -0.00086476 -0.000921428 -0.00233756 -0.00237611 -0.000921428 -0.000986957 -0.00237611 -0.00243328 -0.000986957 -0.00107488 -0.00243328 -0.00258838 -0.00107488 -0.00122419 -0.00258838 -0.00286532 -0.00122419 -0.00152668 -0.00286532 -0.00341181 -0.00152668 -0.00195097 -0.00341181 -0.00419311 -0.00195097 -0.0023511 -0.00419311 -0.00504584 -0.0023511 -0.00299102 -0.00504584 -0.00590297 -0.00299102 -0.00381492 -0.00590297 -0.00675151 -0.00381492 -0.00464633 -0.00675151 -0.00767789 -0.00464633 -0.00554238 -0.00767789 -0.00869342 -0.00554238 -0.00647585 -0.00869342 -0.00977094 -0.00647585 -0.00740864 -0.00977094 -0.0109162 -0.00740864 -0.00843582 -0.0109162 -0.0120309 -0.00843582 -0.00921649 -0.0120309 -0.0124528 -0.00921649 -0.00947425 -0.0124528 -0.0126412 -0.00947425 -0.00953818 -0.0126412 -0.0127129 -0.00953818 -0.00952478 -0.0127129 -0.0127317 -0.00952478 -0.0101819 -0.0127317 -0.0133594 0 -6.9462e-05 0 -6.97944e-05 -6.9462e-05 -0.000146981 -6.97944e-05 -0.000151931 -0.000146981 -0.000231734 -0.000151931 -0.000244718 -0.000231734 -0.000320759 -0.000244718 -0.000345555 -0.000320759 -0.00040883 -0.000345555 -0.000449687 -0.00040883 -0.000489141 -0.000449687 -0.000549722 -0.000489141 -0.000554836 -0.000549722 -0.000636714 -0.000554836 -0.000601133 -0.000636714 -0.000703351 -0.000601133 -0.000627126 -0.000703351 -0.000747711 -0.000627126 -0.000635944 -0.000747711 -0.00077395 -0.000635944 -0.000633065 -0.00077395 -0.000788859 -0.000633065 -0.000624386 -0.000788859 -0.000797774 -0.000624386 -0.000615876 -0.000797774 -0.000803734 -0.000615876 -0.000615192 -0.000803734 -0.000810122 -0.000615192 -0.000633285 -0.000810122 -0.000826178 -0.000633285 -0.000676224 -0.000826178 -0.000871424 -0.000676224 -0.000733053 -0.000871424 -0.00096591 -0.000733053 -0.000795432 -0.00096591 -0.00110027 -0.000795432 -0.000871269 -0.00110027 -0.00125552 -0.000871269 -0.00096309 -0.00125552 -0.0014295 -0.00096309 -0.00106728 -0.0014295 -0.00161501 -0.00106728 -0.00118064 -0.00161501 -0.00181211 -0.00118064 -0.00129931 -0.00181211 -0.00201937 -0.00129931 -0.00141717 -0.00201937 -0.00223283 -0.00141717 -0.00152725 -0.00223283 -0.00244581 -0.00152725 -0.00162859 -0.00244581 -0.00265085 -0.00162859 -0.00173006 -0.00265085 -0.00281969 -0.00173006 -0.00182813 -0.00281969 -0.00295014 -0.00182813 -0.00191188 -0.00295014 -0.00306336 -0.00191188 -0.00198131 -0.00306336 -0.00317153 -0.00198131 -0.00204099 -0.00317153 -0.00327927 -0.00204099 -0.00209231 -0.00327927 -0.00338383 -0.00209231 -0.00213483 -0.00338383 -0.00347898 -0.00213483 -0.00217092 -0.00347898 -0.00356131 -0.00217092 -0.00220387 -0.00356131 -0.00363615 -0.00220387 -0.00223289 -0.00363615 -0.00369929 -0.00223289 -0.00225413 -0.00369929 -0.00374059 -0.00225413 -0.00226836 -0.00374059 -0.00376267 -0.00226836 -0.00228288 -0.00376267 -0.00377685 -0.00228288 -0.00230524 -0.00377685 -0.00379237 -0.00230524 -0.00233756 -0.00379237 -0.00380755 -0.00233756 -0.00237611 -0.00380755 -0.00381202 -0.00237611 -0.00243328 -0.00381202 -0.00385093 -0.00243328 -0.00258838 -0.00385093 -0.0042439 -0.00258838 -0.00286532 -0.0042439 -0.00502897 -0.00286532 -0.00341181 -0.00502897 -0.00588472 -0.00341181 -0.00419311 -0.00588472 -0.00675269 -0.00419311 -0.00504584 -0.00675269 -0.00767869 -0.00504584 -0.00590297 -0.00767869 -0.00864424 -0.00590297 -0.00675151 -0.00864424 -0.00962304 -0.00675151 -0.00767789 -0.00962304 -0.0106401 -0.00767789 -0.00869342 -0.0106401 -0.0117101 -0.00869342 -0.00977094 -0.0117101 -0.0128176 -0.00977094 -0.0109162 -0.0128176 -0.0140125 -0.0109162 -0.0120309 -0.0140125 -0.0150865 -0.0120309 -0.0124528 -0.0150865 -0.0153683 -0.0124528 -0.0126412 -0.0153683 -0.0154958 -0.0126412 -0.0127129 -0.0154958 -0.0155498 -0.0127129 -0.0127317 -0.0155498 -0.0155765 -0.0127317 -0.0133594 -0.0155765 -0.0162658 0 -6.97944e-05 0 -6.80736e-05 -6.97944e-05 -0.000151931 -6.80736e-05 -0.000152212 -0.000151931 -0.000244718 -0.000152212 -0.000250578 -0.000244718 -0.00