# vtk DataFile Version 3.0
#This file was generated by the deal.II library on 2021/2/10 at 2:02:48
ASCII
DATASET UNSTRUCTURED_GRID

POINTS 14400 double
0 -0.5 0
0.0166667 -0.5 0
0 -0.483333 0
0.0166667 -0.483333 0
0.0166667 -0.5 0
0.0333333 -0.5 0
0.0166667 -0.483333 0
0.0333333 -0.483333 0
0.0333333 -0.5 0
0.05 -0.5 0
0.0333333 -0.483333 0
0.05 -0.483333 0
0.05 -0.5 0
0.0666667 -0.5 0
0.05 -0.483333 0
0.0666667 -0.483333 0
0.0666667 -0.5 0
0.0833333 -0.5 0
0.0666667 -0.483333 0
0.0833333 -0.483333 0
0.0833333 -0.5 0
0.1 -0.5 0
0.0833333 -0.483333 0
0.1 -0.483333 0
0.1 -0.5 0
0.116667 -0.5 0
0.1 -0.483333 0
0.116667 -0.483333 0
0.116667 -0.5 0
0.133333 -0.5 0
0.116667 -0.483333 0
0.133333 -0.483333 0
0.133333 -0.5 0
0.15 -0.5 0
0.133333 -0.483333 0
0.15 -0.483333 0
0.15 -0.5 0
0.166667 -0.5 0
0.15 -0.483333 0
0.166667 -0.483333 0
0.166667 -0.5 0
0.183333 -0.5 0
0.166667 -0.483333 0
0.183333 -0.483333 0
0.183333 -0.5 0
0.2 -0.5 0
0.183333 -0.483333 0
0.2 -0.483333 0
0.2 -0.5 0
0.216667 -0.5 0
0.2 -0.483333 0
0.216667 -0.483333 0
0.216667 -0.5 0
0.233333 -0.5 0
0.216667 -0.483333 0
0.233333 -0.483333 0
0.233333 -0.5 0
0.25 -0.5 0
0.233333 -0.483333 0
0.25 -0.483333 0
0.25 -0.5 0
0.266667 -0.5 0
0.25 -0.483333 0
0.266667 -0.483333 0
0.266667 -0.5 0
0.283333 -0.5 0
0.266667 -0.483333 0
0.283333 -0.483333 0
0.283333 -0.5 0
0.3 -0.5 0
0.283333 -0.483333 0
0.3 -0.483333 0
0.3 -0.5 0
0.316667 -0.5 0
0.3 -0.483333 0
0.316667 -0.483333 0
0.316667 -0.5 0
0.333333 -0.5 0
0.316667 -0.483333 0
0.333333 -0.483333 0
0.333333 -0.5 0
0.35 -0.5 0
0.333333 -0.483333 0
0.35 -0.483333 0
0.35 -0.5 0
0.366667 -0.5 0
0.35 -0.483333 0
0.366667 -0.483333 0
0.366667 -0.5 0
0.383333 -0.5 0
0.366667 -0.483333 0
0.383333 -0.483333 0
0.383333 -0.5 0
0.4 -0.5 0
0.383333 -0.483333 0
0.4 -0.483333 0
0.4 -0.5 0
0.416667 -0.5 0
0.4 -0.483333 0
0.416667 -0.483333 0
0.416667 -0.5 0
0.433333 -0.5 0
0.416667 -0.483333 0
0.433333 -0.483333 0
0.433333 -0.5 0
0.45 -0.5 0
0.433333 -0.483333 0
0.45 -0.483333 0
0.45 -0.5 0
0.466667 -0.5 0
0.45 -0.483333 0
0.466667 -0.483333 0
0.466667 -0.5 0
0.483333 -0.5 0
0.466667 -0.483333 0
0.483333 -0.483333 0
0.483333 -0.5 0
0.5 -0.5 0
0.483333 -0.483333 0
0.5 -0.483333 0
0.5 -0.5 0
0.516667 -0.5 0
0.5 -0.483333 0
0.516667 -0.483333 0
0.516667 -0.5 0
0.533333 -0.5 0
0.516667 -0.483333 0
0.533333 -0.483333 0
0.533333 -0.5 0
0.55 -0.5 0
0.533333 -0.483333 0
0.55 -0.483333 0
0.55 -0.5 0
0.566667 -0.5 0
0.55 -0.483333 0
0.566667 -0.483333 0
0.566667 -0.5 0
0.583333 -0.5 0
0.566667 -0.483333 0
0.583333 -0.483333 0
0.583333 -0.5 0
0.6 -0.5 0
0.583333 -0.483333 0
0.6 -0.483333 0
0.6 -0.5 0
0.616667 -0.5 0
0.6 -0.483333 0
0.616667 -0.483333 0
0.616667 -0.5 0
0.633333 -0.5 0
0.616667 -0.483333 0
0.633333 -0.483333 0
0.633333 -0.5 0
0.65 -0.5 0
0.633333 -0.483333 0
0.65 -0.483333 0
0.65 -0.5 0
0.666667 -0.5 0
0.65 -0.483333 0
0.666667 -0.483333 0
0.666667 -0.5 0
0.683333 -0.5 0
0.666667 -0.483333 0
0.683333 -0.483333 0
0.683333 -0.5 0
0.7 -0.5 0
0.683333 -0.483333 0
0.7 -0.483333 0
0.7 -0.5 0
0.716667 -0.5 0
0.7 -0.483333 0
0.716667 -0.483333 0
0.716667 -0.5 0
0.733333 -0.5 0
0.716667 -0.483333 0
0.733333 -0.483333 0
0.733333 -0.5 0
0.75 -0.5 0
0.733333 -0.483333 0
0.75 -0.483333 0
0.75 -0.5 0
0.766667 -0.5 0
0.75 -0.483333 0
0.766667 -0.483333 0
0.766667 -0.5 0
0.783333 -0.5 0
0.766667 -0.483333 0
0.783333 -0.483333 0
0.783333 -0.5 0
0.8 -0.5 0
0.783333 -0.483333 0
0.8 -0.483333 0
0.8 -0.5 0
0.816667 -0.5 0
0.8 -0.483333 0
0.816667 -0.483333 0
0.816667 -0.5 0
0.833333 -0.5 0
0.816667 -0.483333 0
0.833333 -0.483333 0
0.833333 -0.5 0
0.85 -0.5 0
0.833333 -0.483333 0
0.85 -0.483333 0
0.85 -0.5 0
0.866667 -0.5 0
0.85 -0.483333 0
0.866667 -0.483333 0
0.866667 -0.5 0
0.883333 -0.5 0
0.866667 -0.483333 0
0.883333 -0.483333 0
0.883333 -0.5 0
0.9 -0.5 0
0.883333 -0.483333 0
0.9 -0.483333 0
0.9 -0.5 0
0.916667 -0.5 0
0.9 -0.483333 0
0.916667 -0.483333 0
0.916667 -0.5 0
0.933333 -0.5 0
0.916667 -0.483333 0
0.933333 -0.483333 0
0.933333 -0.5 0
0.95 -0.5 0
0.933333 -0.483333 0
0.95 -0.483333 0
0.95 -0.5 0
0.966667 -0.5 0
0.95 -0.483333 0
0.966667 -0.483333 0
0.966667 -0.5 0
0.983333 -0.5 0
0.966667 -0.483333 0
0.983333 -0.483333 0
0.983333 -0.5 0
1 -0.5 0
0.983333 -0.483333 0
1 -0.483333 0
0 -0.483333 0
0.0166667 -0.483333 0
0 -0.466667 0
0.0166667 -0.466667 0
0.0166667 -0.483333 0
0.0333333 -0.483333 0
0.0166667 -0.466667 0
0.0333333 -0.466667 0
0.0333333 -0.483333 0
0.05 -0.483333 0
0.0333333 -0.466667 0
0.05 -0.466667 0
0.05 -0.483333 0
0.0666667 -0.483333 0
0.05 -0.466667 0
0.0666667 -0.466667 0
0.0666667 -0.483333 0
0.0833333 -0.483333 0
0.0666667 -0.466667 0
0.0833333 -0.466667 0
0.0833333 -0.483333 0
0.1 -0.483333 0
0.0833333 -0.466667 0
0.1 -0.466667 0
0.1 -0.483333 0
0.116667 -0.483333 0
0.1 -0.466667 0
0.116667 -0.466667 0
0.116667 -0.483333 0
0.133333 -0.483333 0
0.116667 -0.466667 0
0.133333 -0.466667 0
0.133333 -0.483333 0
0.15 -0.483333 0
0.133333 -0.466667 0
0.15 -0.466667 0
0.15 -0.483333 0
0.166667 -0.483333 0
0.15 -0.466667 0
0.166667 -0.466667 0
0.166667 -0.483333 0
0.183333 -0.483333 0
0.166667 -0.466667 0
0.183333 -0.466667 0
0.183333 -0.483333 0
0.2 -0.483333 0
0.183333 -0.466667 0
0.2 -0.466667 0
0.2 -0.483333 0
0.216667 -0.483333 0
0.2 -0.466667 0
0.216667 -0.466667 0
0.216667 -0.483333 0
0.233333 -0.483333 0
0.216667 -0.466667 0
0.233333 -0.466667 0
0.233333 -0.483333 0
0.25 -0.483333 0
0.233333 -0.466667 0
0.25 -0.466667 0
0.25 -0.483333 0
0.266667 -0.483333 0
0.25 -0.466667 0
0.266667 -0.466667 0
0.266667 -0.483333 0
0.283333 -0.483333 0
0.266667 -0.466667 0
0.283333 -0.466667 0
0.283333 -0.483333 0
0.3 -0.483333 0
0.283333 -0.466667 0
0.3 -0.466667 0
0.3 -0.483333 0
0.316667 -0.483333 0
0.3 -0.466667 0
0.316667 -0.466667 0
0.316667 -0.483333 0
0.333333 -0.483333 0
0.316667 -0.466667 0
0.333333 -0.466667 0
0.333333 -0.483333 0
0.35 -0.483333 0
0.333333 -0.466667 0
0.35 -0.466667 0
0.35 -0.483333 0
0.366667 -0.483333 0
0.35 -0.466667 0
0.366667 -0.466667 0
0.366667 -0.483333 0
0.383333 -0.483333 0
0.366667 -0.466667 0
0.383333 -0.466667 0
0.383333 -0.483333 0
0.4 -0.483333 0
0.383333 -0.466667 0
0.4 -0.466667 0
0.4 -0.483333 0
0.416667 -0.483333 0
0.4 -0.466667 0
0.416667 -0.466667 0
0.416667 -0.483333 0
0.433333 -0.483333 0
0.416667 -0.466667 0
0.433333 -0.466667 0
0.433333 -0.483333 0
0.45 -0.483333 0
0.433333 -0.466667 0
0.45 -0.466667 0
0.45 -0.483333 0
0.466667 -0.483333 0
0.45 -0.466667 0
0.466667 -0.466667 0
0.466667 -0.483333 0
0.483333 -0.483333 0
0.466667 -0.466667 0
0.483333 -0.466667 0
0.483333 -0.483333 0
0.5 -0.483333 0
0.483333 -0.466667 0
0.5 -0.466667 0
0.5 -0.483333 0
0.516667 -0.483333 0
0.5 -0.466667 0
0.516667 -0.466667 0
0.516667 -0.483333 0
0.533333 -0.483333 0
0.516667 -0.466667 0
0.533333 -0.466667 0
0.533333 -0.483333 0
0.55 -0.483333 0
0.533333 -0.466667 0
0.55 -0.466667 0
0.55 -0.483333 0
0.566667 -0.483333 0
0.55 -0.466667 0
0.566667 -0.466667 0
0.566667 -0.483333 0
0.583333 -0.483333 0
0.566667 -0.466667 0
0.583333 -0.466667 0
0.583333 -0.483333 0
0.6 -0.483333 0
0.583333 -0.466667 0
0.6 -0.466667 0
0.6 -0.483333 0
0.616667 -0.483333 0
0.6 -0.466667 0
0.616667 -0.466667 0
0.616667 -0.483333 0
0.633333 -0.483333 0
0.616667 -0.466667 0
0.633333 -0.466667 0
0.633333 -0.483333 0
0.65 -0.483333 0
0.633333 -0.466667 0
0.65 -0.466667 0
0.65 -0.483333 0
0.666667 -0.483333 0
0.65 -0.466667 0
0.666667 -0.466667 0
0.666667 -0.483333 0
0.683333 -0.483333 0
0.666667 -0.466667 0
0.683333 -0.466667 0
0.683333 -0.483333 0
0.7 -0.483333 0
0.683333 -0.466667 0
0.7 -0.466667 0
0.7 -0.483333 0
0.716667 -0.483333 0
0.7 -0.466667 0
0.716667 -0.466667 0
0.716667 -0.483333 0
0.733333 -0.483333 0
0.716667 -0.466667 0
0.733333 -0.466667 0
0.733333 -0.483333 0
0.75 -0.483333 0
0.733333 -0.466667 0
0.75 -0.466667 0
0.75 -0.483333 0
0.766667 -0.483333 0
0.75 -0.466667 0
0.766667 -0.466667 0
0.766667 -0.483333 0
0.783333 -0.483333 0
0.766667 -0.466667 0
0.783333 -0.466667 0
0.783333 -0.483333 0
0.8 -0.483333 0
0.783333 -0.466667 0
0.8 -0.466667 0
0.8 -0.483333 0
0.816667 -0.483333 0
0.8 -0.466667 0
0.816667 -0.466667 0
0.816667 -0.483333 0
0.833333 -0.483333 0
0.816667 -0.466667 0
0.833333 -0.466667 0
0.833333 -0.483333 0
0.85 -0.483333 0
0.833333 -0.466667 0
0.85 -0.466667 0
0.85 -0.483333 0
0.866667 -0.483333 0
0.85 -0.466667 0
0.866667 -0.466667 0
0.866667 -0.483333 0
0.883333 -0.483333 0
0.866667 -0.466667 0
0.883333 -0.466667 0
0.883333 -0.483333 0
0.9 -0.483333 0
0.883333 -0.466667 0
0.9 -0.466667 0
0.9 -0.483333 0
0.916667 -0.483333 0
0.9 -0.466667 0
0.916667 -0.466667 0
0.916667 -0.483333 0
0.933333 -0.483333 0
0.916667 -0.466667 0
0.933333 -0.466667 0
0.933333 -0.483333 0
0.95 -0.483333 0
0.933333 -0.466667 0
0.95 -0.466667 0
0.95 -0.483333 0
0.966667 -0.483333 0
0.95 -0.466667 0
0.966667 -0.466667 0
0.966667 -0.483333 0
0.983333 -0.483333 0
0.966667 -0.466667 0
0.983333 -0.466667 0
0.983333 -0.483333 0
1 -0.483333 0
0.983333 -0.466667 0
1 -0.466667 0
0 -0.466667 0
0.0166667 -0.466667 0
0 -0.45 0
0.0166667 -0.45 0
0.0166667 -0.466667 0
0.0333333 -0.466667 0
0.0166667 -0.45 0
0.0333333 -0.45 0
0.0333333 -0.466667 0
0.05 -0.466667 0
0.0333333 -0.45 0
0.05 -0.45 0
0.05 -0.466667 0
0.0666667 -0.466667 0
0.05 -0.45 0
0.0666667 -0.45 0
0.0666667 -0.466667 0
0.0833333 -0.466667 0
0.0666667 -0.45 0
0.0833333 -0.45 0
0.0833333 -0.466667 0
0.1 -0.466667 0
0.0833333 -0.45 0
0.1 -0.45 0
0.1 -0.466667 0
0.116667 -0.466667 0
0.1 -0.45 0
0.116667 -0.45 0
0.116667 -0.466667 0
0.133333 -0.466667 0
0.116667 -0.45 0
0.133333 -0.45 0
0.133333 -0.466667 0
0.15 -0.466667 0
0.133333 -0.45 0
0.15 -0.45 0
0.15 -0.466667 0
0.166667 -0.466667 0
0.15 -0.45 0
0.166667 -0.45 0
0.166667 -0.466667 0
0.183333 -0.466667 0
0.166667 -0.45 0
0.183333 -0.45 0
0.183333 -0.466667 0
0.2 -0.466667 0
0.183333 -0.45 0
0.2 -0.45 0
0.2 -0.466667 0
0.216667 -0.466667 0
0.2 -0.45 0
0.216667 -0.45 0
0.216667 -0.466667 0
0.233333 -0.466667 0
0.216667 -0.45 0
0.233333 -0.45 0
0.233333 -0.466667 0
0.25 -0.466667 0
0.233333 -0.45 0
0.25 -0.45 0
[...]
POINT_DATA 14400
SCALARS x1_displacement double 1
LOOKUP_TABLE default
0 -6.39947e-05 0 4.52318e-05 -6.39947e-05 -2.78163e-05 4.52318e-05 0.000116635 -2.78163e-05 8.75009e-05 0.000116635 0.000226273 8.75009e-05 0.000263465 0.000226273 0.000374758 0.000263465 0.000489257 0.000374758 0.000559552 0.000489257 0.000757043 0.000559552 0.000777134 0.000757043 0.00106047 0.000777134 0.00102365 0.00106047 0.00139371 0.00102365 0.001295 0.00139371 0.001751 0.001295 0.00158688 0.001751 0.00212657 0.00158688 0.00189482 0.00212657 0.00251469 0.00189482 0.00221435 0.00251469 0.00290982 0.00221435 0.00254111 0.00290982 0.00330689 0.00254111 0.00287104 0.00330689 0.00370134 0.00287104 0.00320048 0.00370134 0.00408934 0.00320048 0.00352628 0.00408934 0.00446774 0.00352628 0.0038458 0.00446774 0.00483412 0.0038458 0.00415695 0.00483412 0.00518668 0.00415695 0.00445811 0.00518668 0.00552421 0.00445811 0.0047481 0.00552421 0.00584597 0.0047481 0.00502616 0.00584597 0.00615168 0.00502616 0.00529185 0.00615168 0.00644137 0.00529185 0.00554503 0.00644137 0.00671541 0.00554503 0.00578586 0.00671541 0.00697444 0.00578586 0.00601468 0.00697444 0.00721933 0.00601468 0.00623211 0.00721933 0.00745124 0.00623211 0.00643895 0.00745124 0.00767153 0.00643895 0.00663618 0.00767153 0.00788184 0.00663618 0.00682503 0.00788184 0.00808403 0.00682503 0.00700687 0.00808403 0.00828025 0.00700687 0.00718328 0.00828025 0.00847288 0.00718328 0.00735602 0.00847288 0.00866452 0.00735602 0.00752695 0.00866452 0.008858 0.00752695 0.00769808 0.008858 0.00905626 0.00769808 0.00787143 0.00905626 0.00926224 0.00787143 0.00804898 0.00926224 0.00947875 0.00804898 0.00823252 0.00947875 0.00970817 0.00823252 0.00842353 0.00970817 0.00995222 0.00842353 0.00862289 0.00995222 0.0102115 0.00862289 0.00883072 0.0102115 0.0104853 0.00883072 0.00904611 0.0104853 0.0107709 0.00904611 0.00926695 0.0107709 0.0110637 0.00926695 0.00948978 0.0110637 0.0113572 0.00948978 0.00970986 0.0113572 0.0116427 0.00970986 0.0099213 0.0116427 0.0119103 0.0099213 0.0101175 0.0119103 0.0121495 0.0101175 0.0102915 0.0121495 0.0123507 0.0102915 0.010437 0.0123507 0.0125065 0.010437 0.0105495 0.0125065 0.0126133 0.0105495 0.010627 0.0126133 0.0126726 0.010627 0.0106705 0.0126726 0.0126902 0.0106705 0.0106845 0.0126902 0.012676 0.0106845 0.0106759 0.012676 0.0126414 0.0106759 0.0106526 0.0126414 0.0125979 0.0106526 0.0106223 0.0125979 0.0125551 0.0106223 0.0105916 0.0125551 0.0125202 0.0105916 0.0105654 0.0125202 0.0124968 0.0105654 0.0105462 0.0124968 0.0124852 0.0105462 0.010535 0.0124852 0.0124822 0.010535 0.0105306 0.0124822 0.0124822 0.0105306 0.0105301 0 4.52318e-05 0 6.24251e-05 4.52318e-05 0.000116635 6.24251e-05 0.000153374 0.000116635 0.000226273 0.000153374 0.000262345 0.000226273 0.000374758 0.000262345 0.000392917 0.000374758 0.000559552 0.000392917 0.000546985 0.000559552 0.000777134 0.000546985 0.000724698 0.000777134 0.00102365 0.000724698 0.000924822 0.00102365 0.001295 0.000924822 0.00114513 0.001295 0.00158688 0.00114513 0.00138268 0.00158688 0.00189482 0.00138268 0.00163409 0.00189482 0.00221435 0.00163409 0.00189578 0.00221435 0.00254111 0.00189578 0.0021642 0.00254111 0.00287104 0.0021642 0.00243604 0.00287104 0.00320048 0.00243604 0.00270832 0.00320048 0.00352628 0.00270832 0.00297849 0.00352628 0.0038458 0.00297849 0.00324443 0.0038458 0.00415695 0.00324443 0.00350441 0.00415695 0.00445811 0.00350441 0.00375712 0.00445811 0.0047481 0.00375712 0.00400156 0.0047481 0.00502616 0.00400156 0.00423701 0.00502616 0.00529185 0.00423701 0.00446304 0.00529185 0.00554503 0.00446304 0.0046794 0.00554503 0.00578586 0.0046794 0.00488608 0.00578586 0.00601468 0.00488608 0.00508324 0.00601468 0.00623211 0.00508324 0.0052712 0.00623211 0.00643895 0.0052712 0.00545045 0.00643895 0.00663618 0.00545045 0.00562163 0.00663618 0.00682503 0.00562163 0.00578554 0.00682503 0.00700687 0.00578554 0.0059431 0.00700687 0.00718328 0.0059431 0.00609536 0.00718328 0.00735602 0.00609536 0.00624351 0.00735602 0.00752695 0.00624351 0.0063888 0.00752695 0.00769808 0.0063888 0.00653256 0.00769808 0.00787143 0.00653256 0.00667615 0.00787143 0.00804898 0.00667615 0.00682091 0.00804898 0.00823252 0.00682091 0.00696804 0.00823252 0.00842353 0.00696804 0.00711858 0.00842353 0.00862289 0.00711858 0.00727318 0.00862289 0.00883072 0.00727318 0.00743201 0.00883072 0.00904611 0.00743201 0.00759451 0.00904611 0.00926695 0.00759451 0.00775925 0.00926695 0.00948978 0.00775925 0.00792384 0.00948978 0.00970986 0.00792384 0.00808496 0.00970986 0.0099213 0.00808496 0.00823848 0.0099213 0.0101175 0.00823848 0.00837958 0.0101175 0.0102915 0.00837958 0.00850303 0.0102915 0.010437 0.00850303 0.00860367 0.010437 0.0105495 0.00860367 0.00867736 0.0105495 0.010627 0.00867736 0.00872225 0.010627 0.0106705 0.00872225 0.00873969 0.0106705 0.0106845 0.00873969 0.00873422 0.0106845 0.0106759 0.00873422 0.00871254 0.0106759 0.0106526 0.00871254 0.00868201 0.0106526 0.0106223 0.00868201 0.00864915 0.0106223 0.0105916 0.00864915 0.00861898 0.0105916 0.0105654 0.00861898 0.00859477 0.0105654 0.0105462 0.00859477 0.00857825 0.0105462 0.010535 0.00857825 0.00856987 0.010535 0.0105306 0.00856987 0.00856867 0.0105306 0.0105301 0.00856867 0.00857125 0 6.24251e-05 0 5.77361e-05 6.24251e-05 0.000153374 5.77361e-05 0.000139609 0.000153374 0.000262345 0.000139609 0.000236563 0.000262345 0.000392917 0.000236563 0.000346936 0.000392917 0.000546985 0.000346936 0.000472744 0.000546985 0.000724698 0.000472744 0.000615577 0.000724698 0.000924822 0.000615577 0.000775816 0.000924822 0.00114513 0.000775816 0.000952563 0.00114513 0.00138268 0.000952563 0.00114386 0.00138268 0.00163409 0.00114386 0.00134702 0.00163409 0.00189578 0.00134702 0.00155904 0.00189578 0.0021642 0.00155904 0.00177685 0.0021642 0.00243604 0.00177685 0.00199766 0.00243604 0.00270832 0.00199766 0.00221901 0.00270832 0.00297849 0.00221901 0.00243889 0.00297849 0.00324443 0.00243889 0.00265567 0.00324443 0.00350441 0.00265567 0.00286805 0.00350441 0.00375712 0.00286805 0.00307506 0.00375712 0.00400156 0.00307506 0.00327594 0.00400156 0.00423701 0.00327594 0.00347012 0.00423701 0.00446304 0.00347012 0.00365721 0.00446304 0.0046794 0.00365721 0.00383693 0.0046794 0.00488608 0.00383693 0.00400915 0.00488608 0.00508324 0.00400915 0.00417386 0.00508324 0.0052712 0.00417386 0.00433115 0.0052712 0.00545045 0.00433115 0.00448121 0.00545045 0.00562163 0.00448121 0.00462437 0.00562163 0.00578554 0.00462437 0.00476102 0.00578554 0.0059431 0.00476102 0.00489169 0.0059431 0.00609536 0.00489169 0.00501696 0.00609536 0.00624351 0.00501696 0.00513751 0.00624351 0.0063888 0.00513751 0.00525408 0.0063888 0.00653256 0.00525408 0.00536749 0.00653256 0.00667615 0.00536749 0.0054786 0.00667615 0.00682091 0.0054786 0.0055883 0.00682091 0.00696804 0.0055883 0.0056975 0.00696804 0.00711858 0.0056975 0.00580707 0.00711858 0.00727318 0.00580707 0.00591776 0.00727318 0.00743201 0.00591776 0.00603004 0.00743201 0.00759451 0.00603004 0.00614391 0.00759451 0.00775925 0.00614391 0.00625863 0.00775925 0.00792384 0.00625863 0.00637261 0.00792384 0.00808496 0.00637261 0.00648348 0.00808496 0.00823848 0.00648348 0.00658822 0.00823848 0.00837958 0.00658822 0.00668315 0.00837958 0.00850303 0.00668315 0.00676373 0.00850303 0.00860367 0.00676373 0.00682465 0.00860367 0.00867736 0.00682465 0.00686098 0.00867736 0.00872225 0.00686098 0.00687022 0.00872225 0.00873969 0.00687022 0.00685399 0.00873969 0.00873422 0.00685399 0.00681832 0.00873422 0.00871254 0.00681832 0.00677179 0.00871254 0.00868201 0.00677179 0.00672295 0.00868201 0.00864915 0.00672295 0.00667836 0.00864915 0.00861898 0.00667836 0.00664205 0.00861898 0.00859477 0.00664205 0.0066159 0.00859477 0.00857825 0.0066159 0.00660036 0.00857825 0.00856987 0.00660036 0.00659488 0.00856987 0.00856867 0.00659488 0.00659778 0.00856867 0.00857125 0.00659778 0.00660543 0 5.77361e-05 0 4.15815e-05 5.77361e-05 0.000139609 4.15815e-05 0.000102279 0.000139609 0.000236563 0.000102279 0.000175466 0.000236563 0.000346936 0.000175466 0.000259257 0.000346936 0.000472744 0.000259257 0.000354722 0.000472744 0.000615577 0.000354722 0.0004637 0.000615577 0.000775816 0.0004637 0.000587234 0.000775816 0.000952563 0.000587234 0.000725059 0.000952563 0.00114386 0.000725059 0.000875637 0.00114386 0.00134702 0.000875637 0.00103652 0.00134702 0.00155904 0.00103652 0.00120486 0.00155904 0.00177685 0.00120486 0.00137781 0.00177685 0.00199766 0.00137781 0.00155288 0.00199766 0.00221901 0.00155288 0.00172805 0.00221901 0.00243889 0.00172805 0.00190179 0.00243889 0.00265567 0.00190179 0.00207295 0.00265567 0.00286805 0.00207295 0.00224072 0.00286805 0.00307506 0.00224072 0.00240446 0.00307506 0.00327594 0.00240446 0.0025637 0.00327594 0.00347012 0.0025637 0.00271805 0.00347012 0.00365721 0.00271805 0.0028672 0.00365721 0.00383693 0.0028672 0.00301088 0.00383693 0.00400915 0.00301088 0.00314886 0.00400915 0.00417386 0.00314886 0.00328099 0.00417386 0.00433115 0.00328099 0.00340714 0.00433115 0.00448121 0.00340714 0.00352728 0.00448121 0.00462437 0.00352728 0.00364141 0.00462437 0.00476102 0.00364141 0.0037496 0.00476102 0.00489169 0.0037496 0.00385199 0.00489169 0.00501696 0.00385199 0.00394878 0.00501696 0.00513751 0.00394878 0.00404023 0.00513751 0.00525408 0.00404023 0.00412665 0.00525408 0.00536749 0.00412665 0.00420845 0.00536749 0.0054786 0.00420845 0.00428608 0.0054786 0.0055883 0.00428608 0.00436015 0.0055883 0.0056975 0.00436015 0.00443137 0.0056975 0.00580707 0.00443137 0.00450058 0.00580707 0.00591776 0.00450058 0.00456872 0.00591776 0.00603004 0.00456872 0.00463669 0.00603004 0.00614391 0.00463669 0.00470506 0.00614391 0.00625863 0.00470506 0.00477367 0.00625863 0.00637261 0.00477367 0.00484136 0.00637261 0.00648348 0.00484136 0.0049061 0.00648348 0.00658822 0.0049061 0.00496555 0.00658822 0.00668315 0.00496555 0.00501712 0.00668315 0.00676373 0.00501712 0.00505703 0.00676373 0.00682465 0.00505703 0.00507942 0.00682465 0.00686098 0.00507942 0.0050776 0.00686098 0.00687022 0.0050776 0.00504749 0.00687022 0.00685399 0.00504749 0.00499116 0.00685399 0.00681832 0.00499116 0.0049175 0.00681832 0.00677179 0.0049175 0.00483887 0.00677179 0.00672295 0.00483887 0.0047662 0.00672295 0.00667836 0.0047662 0.00470627 0.00667836 0.00664205 0.00470627 0.00466172 0.00664205 0.0066159 0.00466172 0.00463257 0.0066159 0.00660036 0.00463257 0.00461761 0.00660036 0.00659488 0.00461761 0.00461511 0.00659488 0.00659778 0.00461511 0.00462272 0.00659778 0.00660543 0.00462272 0.00463695 0 4.15815e-05 0 1.9374e-05 4.15815e-05 0.000102279 1.9374e-05 5.17744e-05 0.000102279 0.000175466 5.17744e-05 9.38015e-05 0.000175466 0.000259257 9.38015e-05 0.000144814 0.000259257 0.000354722 0.000144814 0.00020626 0.000354722 0.0004637 0.00020626 0.000280187 0.0004637 0.000587234 0.000280187 0.000367924 0.000587234 0.000725059 0.000367924 0.000469329 0.000725059 0.000875637 0.000469329 0.000582738 0.000875637 0.00103652 0.000582738 0.000705419 0.00103652 0.00120486 0.000705419 0.000834255 0.00120486 0.00137781 0.000834255 0.00096635 0.00137781 0.00155288 0.00096635 0.00109939 0.00155288 0.00172805 0.00109939 0.00123174 0.00172805 0.00190179 0.00123174 0.00136234 0.00190179 0.00207295 0.00136234 0.00149059 0.00207295 0.00224072 0.00149059 0.00161611 0.00224072 0.00240446 0.00161611 0.00173867 0.00240446 0.0025637 0.00173867 0.00185807 0.0025637 0.00271805 0.00185807 0.00197411 0.00271805 0.0028672 0.00197411 0.00208656 0.0028672 0.00301088 0.00208656 0.00219515 0.00301088 0.00314886 0.00219515 0.00229959 0.00314886 0.00328099 0.00229959 0.0023996 0.00328099 0.00340714 0.0023996 0.00249486 0.00340714 0.00352728 0.00249486 0.00258512 0.00352728 0.00364141 0.00258512 0.00267011 0.00364141 0.0037496 0.00267011 0.00274962 0.0037496 0.00385199 0.00274962 0.00282347 0.00385199 0.00394878 0.00282347 0.00289153 0.00394878 0.00404023 0.00289153 0.00295371 0.00404023 0.00412665 0.00295371 0.00300998 0.00412665 0.00420845 0.00300998 0.00306038 0.00420845 0.00428608 0.00306038 0.00310509 0.00428608 0.00436015 0.00310509 0.00314442 0.00436015 0.00443137 0.00314442 0.00317892 0.00443137 0.00450058 0.00317892 0.00320938 0.00450058 0.00456872 0.00320938 0.00323688 0.00456872 0.00463669 0.00323688 0.00326269 0.00463669 0.00470506 0.00326269 0.00328793 0.00470506 0.00477367 0.00328793 0.00331292 0.00477367 0.00484136 0.00331292 0.00333636 0.00484136 0.0049061 0.00333636 0.00335553 0.0049061 0.00496555 0.00335553 0.00336797 0.00496555 0.00501712 0.00336797 0.00337276 0.00501712 0.00505703 0.00337276 0.00336829 0.00505703 0.00507942 0.00336829 0.00334895 0.00507942 0.0050776 0.00334895 0.00330559 0.0050776 0.00504749 0.00330559 0.00323142 0.00504749 0.00499116 0.00323142 0.00312878 0.00499116 0.0049175 0.00312878 0.00301149 0.0049175 0.00483887 0.00301149 0.00289786 0.00483887 0.0047662 0.00289786 0.00280162 0.0047662 0.00470627 0.00280162 0.00272845 0.00470627 0.00466172 0.00272845 0.00267813 0.00466172 0.00463257 0.00267813 0.00264799 0.00463257 0.00461761 0.00264799 0.00263501 0.00461761 0.00461511 0.00263501 0.00263642 0.00461511 0.00462272 0.00263642 0.00264965 0.00462272 0.00463695 0.00264965 0.00267174 0 1.9374e-05 0 -6.2209e-06 1.9374e-05 5.17744e-05 -6.2209e-06 -6.21463e-06 5.17744e-05 9.38015e-05 -6.21463e-06 -2.36155e-07 9.38015e-05 0.000144814 -2.36155e-07 1.31894e-05 0.000144814 0.00020626 1.31894e-05 3.67992e-05 0.00020626 0.000280187 3.67992e-05 7.34729e-05 0.000280187 0.000367924 7.34729e-05 0.000124947 0.000367924 0.000469329 0.000124947 0.000190972 0.000469329 0.000582738 0.000190972 0.000269274 0.000582738 0.000705419 0.000269274 0.000356288 0.000705419 0.000834255 0.000356288 0.000448214 0.000834255 0.00096635 0.000448214 0.000541873 0.00096635 0.00109939 0.000541873 0.000635088 0.00109939 0.00123174 0.000635088 0.000726652 0.00123174 0.00136234 0.000726652 0.000816076 0.00136234 0.00149059 0.000816076 0.00090329 0.00149059 0.00161611 0.00090329 0.000988407 0.00161611 0.00173867 0.000988407 0.00107156 0.00173867 0.00185807 0.00107156 0.00115282 0.00185807 0.00197411 0.00115282 0.00123213 0.00197411 0.00208656 0.00123213 0.00130932 0.00208656 0.00219515 0.00130932 0.00138413 0.00219515 0.00229959 0.00138413 0.00145618 0.00229959 0.0023996 0.00145618 0.00152506 0.0023996 0.00249486 0.00152506 0.0015903 0.00249486 0.00258512 0.0015903 0.00165144 0.00258512 0.00267011 0.00165144 0.00170799 0.00267011 0.00274962 0.00170799 0.0017595 0.00274962 0.00282347 0.0017595 0.00180553 0.00282347 0.00289153 0.00180553 0.00184568 0.00289153 0.00295371 0.00184568 0.00187959 0.00295371 0.00300998 0.00187959 0.00190695 0.00300998 0.00306038 0.00190695 0.00192753 0.00306038 0.00310509 0.00192753 0.00194124 0.00310509 0.00314442 0.00194124 0.00194814 0.00314442 0.00317892 0.00194814 0.00194854 0.00317892 0.00320938 0.00194854 0.00194311 0.00320938 0.00323688 0.00194311 0.00193284 0.00323688 0.00326269 0.00193284 0.0019191 0.00326269 0.00328793 0.0019191 0.0019034 0.00328793 0.00331292 0.0019034 0.00188659 0.00331292 0.00333636 0.00188659 0.00186698 0.00333636 0.00335553 0.00186698 0.00183918 0.00335553 0.00336797 0.00183918 0.00179804 0.00336797 0.00337276 0.00179804 0.00174487 0.00337276 0.00336829 0.00174487 0.00168371 0.00336829 0.00334895 0.00168371 0.00161161 0.00334895 0.00330559 0.00161161 0.00151875 0.00330559 0.00323142 0.00151875 0.00139388 0.00323142 0.00312878 0.00139388 0.00123936 0.00312878 0.00301149 0.00123936 0.00107624 0.00301149 0.00289786 0.00107624 0.000931591 0.00289786 0.00280162 0.000931591 0.000820193 0.00280162 0.00272845 0.000820193 0.000742549 0.00272845 0.00267813 0.000742549 0.000693363 0.00267813 0.00264799 0.000693363 0.000666969 0.00264799 0.00263501 0.000666969 0.000658878 0.00263501 0.00263642 0.000658878 0.000665913 0.00263642 0.00264965 0.000665913 0.000685846 0.00264965 0.00267174 0.000685846 0.000716837 0 -6.2209e-06 0 -3.3259e-05 -6.2209e-06 -6.21463e-06 -3.3259e-05 -6.78092e-05 -6.21463e-06 -2.36155e-07 -6.78092e-05 -0.000100937 -2.36155e-07 1.31894e-05 -0.000100937 -0.00012876 1.31894e-05 3.67992e-05 -0.00012876 -0.000146554 3.67992e-05 7.34729e-05 -0.000146554 -0.000149844 7.34729e-05 0.000124947 -0.000149844 -0.000135975 0.000124947 0.000190972 -0.000135975 -0.000105309 0.000190972 0.000269274 -0.000105309 -6.11954e-05 0.000269274 0.000356288 -6.11954e-05 -8.65118e-06 0.000356288 0.000448214 -8.65118e-06 4.74219e-05 0.000448214 0.000541873 4.74219e-05 0.000103466 0.000541873 0.000635088 0.000103466 0.000157573 0.000635088 0.000726652 0.000157573 0.000209142 0.000726652 0.000816076 0.000209142 0.000258358 0.000816076 0.00090329 0.000258358 0.000305743 0.00090329 0.000988407 0.000305743 0.000351864 0.000988407 0.00107156 0.000351864 0.000397179 0.00107156 0.00115282 0.000397179 0.000441947 0.00115282 0.00123213 0.000441947 0.000486219 0.00123213 0.00130932 0.000486219 0.000529843 0.00130932 0.00138413 0.000529843 0.000572496 0.00138413 0.00145618 0.000572496 0.000613726 0.00145618 0.00152506 0.000613726 0.00065298 0.00152506 0.0015903 0.00065298 0.000689644 0.0015903 0.00165144 0.000689644 0.000723066 0.00165144 0.00170799 0.000723066 0.000752582 0.00170799 0.0017595 0.000752582 0.000777537 0.0017595 0.00180553 0.000777537 0.000797301 0.00180553 0.00184568 0.000797301 0.000811276 0.00184568 0.00187959 0.000811276 0.000818912 0.00187959 0.00190695 0.000818912 0.000819709 0.00190695 0.00192753 0.000819709 0.000813242 0.00192753 0.00194124 0.000813242 0.000799186 0.00194124 0.00194814 0.000799186 0.000777372 0.00194814 0.00194854 0.000777372 0.000747867 0.00194854 0.00194311 0.000747867 0.000711049 0.00194311 0.00193284 0.000711049 0.000667623 0.00193284 0.0019191 0.000667623 0.000618552 0.0019191 0.0019034 0.000618552 0.000565009 0.0019034 0.00188659 0.000565009 0.000508179 0.00188659 0.00186698 0.000508179 0.000446955 0.00186698 0.00183918 0.000446955 0.000371926 0.00183918 0.00179804 0.000371926 0.000268751 0.00179804 0.00174487 0.000268751 0.000137412 0.00174487 0.00168371 0.000137412 -7.79664e-06 0.00168371 0.00161161 -7.79664e-06 -0.000160924 0.00161161 0.00151875 -0.000160924 -0.000326151 0.00151875 0.00139388 -0.000326151 -0.000509721 0.00139388 0.00123936 -0.000509721 -0.000717946 0.00123936 0.00107624 -0.000717946 -0.000918397 0.00107624 0.000931591 -0.000918397 -0.00107459 0.000931591 0.000820193 -0.00107459 -0.00118093 0.000820193 0.000742549 -0.00118093 -0.00124799 0.000742549 0.000693363 -0.00124799 -0.0012861 0.000693363 0.000666969 -0.0012861 -0.00130267 0.000666969 0.000658878 -0.00130267 -0.00130236 0.000658878 0.000665913 -0.00130236 -0.00128784 0.000665913 0.000685846 -0.00128784 -0.00126026 0.000685846 0.000716837 -0.00126026 -0.00121975 0 -3.3259e-05 0 -5.98877e-05 -3.3259e-05 -6.78092e-05 -5.98877e-05 -0.000129257 -6.78092e-05 -0.000100937 -0.000129257 -0.000202852 -0.000100937 -0.00012876 -0.000202852 -0.000274538 -0.00012876 -0.000146554 -0.000274538 -0.000337162 -0.000146554 -0.000149844 -0.000337162 -0.0003837 -0.000149844 -0.000135975 -0.0003837 -0.000409648 -0.000135975 -0.000105309 -0.000409648 -0.000415228 -0.000105309 -6.11954e-05 -0.000415228 -0.000405453 -6.11954e-05 -8.65118e-06 -0.000405453 -0.000387614 -8.65118e-06 4.74219e-05 -0.000387614 -0.00036809 4.74219e-05 0.000103466 -0.00036809 -0.000350627 0.000103466 0.000157573 -0.000350627 -0.000336453 0.000157573 0.000209142 -0.000336453 -0.000325251 0.000209142 0.000258358 -0.000325251 -0.000316052 0.000258358 0.000305743 -0.000316052 -0.000307771 0.000305743 0.000351864 -0.000307771 -0.000299471 0.000351864 0.000397179 -0.000299471 -0.000290485 0.000397179 0.000441947 -0.000290485 -0.000280458 0.000441947 0.000486219 -0.000280458 -0.000269336 0.000486219 0.000529843 -0.000269336 -0.000257325 0.000529843 0.000572496 -0.000257325 -0.000244842 0.000572496 0.000613726 -0.000244842 -0.000232463 0.000613726 0.00065298 -0.000232463 -0.000220878 0.00065298 0.000689644 -0.000220878 -0.000210852 0.000689644 0.000723066 -0.000210852 -0.000203192 0.000723066 0.000752582 -0.000203192 -0.000198715 0.000752582 0.000777537 -0.000198715 -0.000198222 0.0007