# vtk DataFile Version 3.0
#This file was generated by the deal.II library on 2021/2/10 at 3:16:15
ASCII
DATASET UNSTRUCTURED_GRID

POINTS 14400 double
0 -0.5 0
0.0166667 -0.5 0
0 -0.483333 0
0.0166667 -0.483333 0
0.0166667 -0.5 0
0.0333333 -0.5 0
0.0166667 -0.483333 0
0.0333333 -0.483333 0
0.0333333 -0.5 0
0.05 -0.5 0
0.0333333 -0.483333 0
0.05 -0.483333 0
0.05 -0.5 0
0.0666667 -0.5 0
0.05 -0.483333 0
0.0666667 -0.483333 0
0.0666667 -0.5 0
0.0833333 -0.5 0
0.0666667 -0.483333 0
0.0833333 -0.483333 0
0.0833333 -0.5 0
0.1 -0.5 0
0.0833333 -0.483333 0
0.1 -0.483333 0
0.1 -0.5 0
0.116667 -0.5 0
0.1 -0.483333 0
0.116667 -0.483333 0
0.116667 -0.5 0
0.133333 -0.5 0
0.116667 -0.483333 0
0.133333 -0.483333 0
0.133333 -0.5 0
0.15 -0.5 0
0.133333 -0.483333 0
0.15 -0.483333 0
0.15 -0.5 0
0.166667 -0.5 0
0.15 -0.483333 0
0.166667 -0.483333 0
0.166667 -0.5 0
0.183333 -0.5 0
0.166667 -0.483333 0
0.183333 -0.483333 0
0.183333 -0.5 0
0.2 -0.5 0
0.183333 -0.483333 0
0.2 -0.483333 0
0.2 -0.5 0
0.216667 -0.5 0
0.2 -0.483333 0
0.216667 -0.483333 0
0.216667 -0.5 0
0.233333 -0.5 0
0.216667 -0.483333 0
0.233333 -0.483333 0
0.233333 -0.5 0
0.25 -0.5 0
0.233333 -0.483333 0
0.25 -0.483333 0
0.25 -0.5 0
0.266667 -0.5 0
0.25 -0.483333 0
0.266667 -0.483333 0
0.266667 -0.5 0
0.283333 -0.5 0
0.266667 -0.483333 0
0.283333 -0.483333 0
0.283333 -0.5 0
0.3 -0.5 0
0.283333 -0.483333 0
0.3 -0.483333 0
0.3 -0.5 0
0.316667 -0.5 0
0.3 -0.483333 0
0.316667 -0.483333 0
0.316667 -0.5 0
0.333333 -0.5 0
0.316667 -0.483333 0
0.333333 -0.483333 0
0.333333 -0.5 0
0.35 -0.5 0
0.333333 -0.483333 0
0.35 -0.483333 0
0.35 -0.5 0
0.366667 -0.5 0
0.35 -0.483333 0
0.366667 -0.483333 0
0.366667 -0.5 0
0.383333 -0.5 0
0.366667 -0.483333 0
0.383333 -0.483333 0
0.383333 -0.5 0
0.4 -0.5 0
0.383333 -0.483333 0
0.4 -0.483333 0
0.4 -0.5 0
0.416667 -0.5 0
0.4 -0.483333 0
0.416667 -0.483333 0
0.416667 -0.5 0
0.433333 -0.5 0
0.416667 -0.483333 0
0.433333 -0.483333 0
0.433333 -0.5 0
0.45 -0.5 0
0.433333 -0.483333 0
0.45 -0.483333 0
0.45 -0.5 0
0.466667 -0.5 0
0.45 -0.483333 0
0.466667 -0.483333 0
0.466667 -0.5 0
0.483333 -0.5 0
0.466667 -0.483333 0
0.483333 -0.483333 0
0.483333 -0.5 0
0.5 -0.5 0
0.483333 -0.483333 0
0.5 -0.483333 0
0.5 -0.5 0
0.516667 -0.5 0
0.5 -0.483333 0
0.516667 -0.483333 0
0.516667 -0.5 0
0.533333 -0.5 0
0.516667 -0.483333 0
0.533333 -0.483333 0
0.533333 -0.5 0
0.55 -0.5 0
0.533333 -0.483333 0
0.55 -0.483333 0
0.55 -0.5 0
0.566667 -0.5 0
0.55 -0.483333 0
0.566667 -0.483333 0
0.566667 -0.5 0
0.583333 -0.5 0
0.566667 -0.483333 0
0.583333 -0.483333 0
0.583333 -0.5 0
0.6 -0.5 0
0.583333 -0.483333 0
0.6 -0.483333 0
0.6 -0.5 0
0.616667 -0.5 0
0.6 -0.483333 0
0.616667 -0.483333 0
0.616667 -0.5 0
0.633333 -0.5 0
0.616667 -0.483333 0
0.633333 -0.483333 0
0.633333 -0.5 0
0.65 -0.5 0
0.633333 -0.483333 0
0.65 -0.483333 0
0.65 -0.5 0
0.666667 -0.5 0
0.65 -0.483333 0
0.666667 -0.483333 0
0.666667 -0.5 0
0.683333 -0.5 0
0.666667 -0.483333 0
0.683333 -0.483333 0
0.683333 -0.5 0
0.7 -0.5 0
0.683333 -0.483333 0
0.7 -0.483333 0
0.7 -0.5 0
0.716667 -0.5 0
0.7 -0.483333 0
0.716667 -0.483333 0
0.716667 -0.5 0
0.733333 -0.5 0
0.716667 -0.483333 0
0.733333 -0.483333 0
0.733333 -0.5 0
0.75 -0.5 0
0.733333 -0.483333 0
0.75 -0.483333 0
0.75 -0.5 0
0.766667 -0.5 0
0.75 -0.483333 0
0.766667 -0.483333 0
0.766667 -0.5 0
0.783333 -0.5 0
0.766667 -0.483333 0
0.783333 -0.483333 0
0.783333 -0.5 0
0.8 -0.5 0
0.783333 -0.483333 0
0.8 -0.483333 0
0.8 -0.5 0
0.816667 -0.5 0
0.8 -0.483333 0
0.816667 -0.483333 0
0.816667 -0.5 0
0.833333 -0.5 0
0.816667 -0.483333 0
0.833333 -0.483333 0
0.833333 -0.5 0
0.85 -0.5 0
0.833333 -0.483333 0
0.85 -0.483333 0
0.85 -0.5 0
0.866667 -0.5 0
0.85 -0.483333 0
0.866667 -0.483333 0
0.866667 -0.5 0
0.883333 -0.5 0
0.866667 -0.483333 0
0.883333 -0.483333 0
0.883333 -0.5 0
0.9 -0.5 0
0.883333 -0.483333 0
0.9 -0.483333 0
0.9 -0.5 0
0.916667 -0.5 0
0.9 -0.483333 0
0.916667 -0.483333 0
0.916667 -0.5 0
0.933333 -0.5 0
0.916667 -0.483333 0
0.933333 -0.483333 0
0.933333 -0.5 0
0.95 -0.5 0
0.933333 -0.483333 0
0.95 -0.483333 0
0.95 -0.5 0
0.966667 -0.5 0
0.95 -0.483333 0
0.966667 -0.483333 0
0.966667 -0.5 0
0.983333 -0.5 0
0.966667 -0.483333 0
0.983333 -0.483333 0
0.983333 -0.5 0
1 -0.5 0
0.983333 -0.483333 0
1 -0.483333 0
0 -0.483333 0
0.0166667 -0.483333 0
0 -0.466667 0
0.0166667 -0.466667 0
0.0166667 -0.483333 0
0.0333333 -0.483333 0
0.0166667 -0.466667 0
0.0333333 -0.466667 0
0.0333333 -0.483333 0
0.05 -0.483333 0
0.0333333 -0.466667 0
0.05 -0.466667 0
0.05 -0.483333 0
0.0666667 -0.483333 0
0.05 -0.466667 0
0.0666667 -0.466667 0
0.0666667 -0.483333 0
0.0833333 -0.483333 0
0.0666667 -0.466667 0
0.0833333 -0.466667 0
0.0833333 -0.483333 0
0.1 -0.483333 0
0.0833333 -0.466667 0
0.1 -0.466667 0
0.1 -0.483333 0
0.116667 -0.483333 0
0.1 -0.466667 0
0.116667 -0.466667 0
0.116667 -0.483333 0
0.133333 -0.483333 0
0.116667 -0.466667 0
0.133333 -0.466667 0
0.133333 -0.483333 0
0.15 -0.483333 0
0.133333 -0.466667 0
0.15 -0.466667 0
0.15 -0.483333 0
0.166667 -0.483333 0
0.15 -0.466667 0
0.166667 -0.466667 0
0.166667 -0.483333 0
0.183333 -0.483333 0
0.166667 -0.466667 0
0.183333 -0.466667 0
0.183333 -0.483333 0
0.2 -0.483333 0
0.183333 -0.466667 0
0.2 -0.466667 0
0.2 -0.483333 0
0.216667 -0.483333 0
0.2 -0.466667 0
0.216667 -0.466667 0
0.216667 -0.483333 0
0.233333 -0.483333 0
0.216667 -0.466667 0
0.233333 -0.466667 0
0.233333 -0.483333 0
0.25 -0.483333 0
0.233333 -0.466667 0
0.25 -0.466667 0
0.25 -0.483333 0
0.266667 -0.483333 0
0.25 -0.466667 0
0.266667 -0.466667 0
0.266667 -0.483333 0
0.283333 -0.483333 0
0.266667 -0.466667 0
0.283333 -0.466667 0
0.283333 -0.483333 0
0.3 -0.483333 0
0.283333 -0.466667 0
0.3 -0.466667 0
0.3 -0.483333 0
0.316667 -0.483333 0
0.3 -0.466667 0
0.316667 -0.466667 0
0.316667 -0.483333 0
0.333333 -0.483333 0
0.316667 -0.466667 0
0.333333 -0.466667 0
0.333333 -0.483333 0
0.35 -0.483333 0
0.333333 -0.466667 0
0.35 -0.466667 0
0.35 -0.483333 0
0.366667 -0.483333 0
0.35 -0.466667 0
0.366667 -0.466667 0
0.366667 -0.483333 0
0.383333 -0.483333 0
0.366667 -0.466667 0
0.383333 -0.466667 0
0.383333 -0.483333 0
0.4 -0.483333 0
0.383333 -0.466667 0
0.4 -0.466667 0
0.4 -0.483333 0
0.416667 -0.483333 0
0.4 -0.466667 0
0.416667 -0.466667 0
0.416667 -0.483333 0
0.433333 -0.483333 0
0.416667 -0.466667 0
0.433333 -0.466667 0
0.433333 -0.483333 0
0.45 -0.483333 0
0.433333 -0.466667 0
0.45 -0.466667 0
0.45 -0.483333 0
0.466667 -0.483333 0
0.45 -0.466667 0
0.466667 -0.466667 0
0.466667 -0.483333 0
0.483333 -0.483333 0
0.466667 -0.466667 0
0.483333 -0.466667 0
0.483333 -0.483333 0
0.5 -0.483333 0
0.483333 -0.466667 0
0.5 -0.466667 0
0.5 -0.483333 0
0.516667 -0.483333 0
0.5 -0.466667 0
0.516667 -0.466667 0
0.516667 -0.483333 0
0.533333 -0.483333 0
0.516667 -0.466667 0
0.533333 -0.466667 0
0.533333 -0.483333 0
0.55 -0.483333 0
0.533333 -0.466667 0
0.55 -0.466667 0
0.55 -0.483333 0
0.566667 -0.483333 0
0.55 -0.466667 0
0.566667 -0.466667 0
0.566667 -0.483333 0
0.583333 -0.483333 0
0.566667 -0.466667 0
0.583333 -0.466667 0
0.583333 -0.483333 0
0.6 -0.483333 0
0.583333 -0.466667 0
0.6 -0.466667 0
0.6 -0.483333 0
0.616667 -0.483333 0
0.6 -0.466667 0
0.616667 -0.466667 0
0.616667 -0.483333 0
0.633333 -0.483333 0
0.616667 -0.466667 0
0.633333 -0.466667 0
0.633333 -0.483333 0
0.65 -0.483333 0
0.633333 -0.466667 0
0.65 -0.466667 0
0.65 -0.483333 0
0.666667 -0.483333 0
0.65 -0.466667 0
0.666667 -0.466667 0
0.666667 -0.483333 0
0.683333 -0.483333 0
0.666667 -0.466667 0
0.683333 -0.466667 0
0.683333 -0.483333 0
0.7 -0.483333 0
0.683333 -0.466667 0
0.7 -0.466667 0
0.7 -0.483333 0
0.716667 -0.483333 0
0.7 -0.466667 0
0.716667 -0.466667 0
0.716667 -0.483333 0
0.733333 -0.483333 0
0.716667 -0.466667 0
0.733333 -0.466667 0
0.733333 -0.483333 0
0.75 -0.483333 0
0.733333 -0.466667 0
0.75 -0.466667 0
0.75 -0.483333 0
0.766667 -0.483333 0
0.75 -0.466667 0
0.766667 -0.466667 0
0.766667 -0.483333 0
0.783333 -0.483333 0
0.766667 -0.466667 0
0.783333 -0.466667 0
0.783333 -0.483333 0
0.8 -0.483333 0
0.783333 -0.466667 0
0.8 -0.466667 0
0.8 -0.483333 0
0.816667 -0.483333 0
0.8 -0.466667 0
0.816667 -0.466667 0
0.816667 -0.483333 0
0.833333 -0.483333 0
0.816667 -0.466667 0
0.833333 -0.466667 0
0.833333 -0.483333 0
0.85 -0.483333 0
0.833333 -0.466667 0
0.85 -0.466667 0
0.85 -0.483333 0
0.866667 -0.483333 0
0.85 -0.466667 0
0.866667 -0.466667 0
0.866667 -0.483333 0
0.883333 -0.483333 0
0.866667 -0.466667 0
0.883333 -0.466667 0
0.883333 -0.483333 0
0.9 -0.483333 0
0.883333 -0.466667 0
0.9 -0.466667 0
0.9 -0.483333 0
0.916667 -0.483333 0
0.9 -0.466667 0
0.916667 -0.466667 0
0.916667 -0.483333 0
0.933333 -0.483333 0
0.916667 -0.466667 0
0.933333 -0.466667 0
0.933333 -0.483333 0
0.95 -0.483333 0
0.933333 -0.466667 0
0.95 -0.466667 0
0.95 -0.483333 0
0.966667 -0.483333 0
0.95 -0.466667 0
0.966667 -0.466667 0
0.966667 -0.483333 0
0.983333 -0.483333 0
0.966667 -0.466667 0
0.983333 -0.466667 0
0.983333 -0.483333 0
1 -0.483333 0
0.983333 -0.466667 0
1 -0.466667 0
0 -0.466667 0
0.0166667 -0.466667 0
0 -0.45 0
0.0166667 -0.45 0
0.0166667 -0.466667 0
0.0333333 -0.466667 0
0.0166667 -0.45 0
0.0333333 -0.45 0
0.0333333 -0.466667 0
0.05 -0.466667 0
0.0333333 -0.45 0
0.05 -0.45 0
0.05 -0.466667 0
0.0666667 -0.466667 0
0.05 -0.45 0
0.0666667 -0.45 0
0.0666667 -0.466667 0
0.0833333 -0.466667 0
0.0666667 -0.45 0
0.0833333 -0.45 0
0.0833333 -0.466667 0
0.1 -0.466667 0
0.0833333 -0.45 0
0.1 -0.45 0
0.1 -0.466667 0
0.116667 -0.466667 0
0.1 -0.45 0
0.116667 -0.45 0
0.116667 -0.466667 0
0.133333 -0.466667 0
0.116667 -0.45 0
0.133333 -0.45 0
0.133333 -0.466667 0
0.15 -0.466667 0
0.133333 -0.45 0
0.15 -0.45 0
0.15 -0.466667 0
0.166667 -0.466667 0
0.15 -0.45 0
0.166667 -0.45 0
0.166667 -0.466667 0
0.183333 -0.466667 0
0.166667 -0.45 0
0.183333 -0.45 0
0.183333 -0.466667 0
0.2 -0.466667 0
0.183333 -0.45 0
0.2 -0.45 0
0.2 -0.466667 0
0.216667 -0.466667 0
0.2 -0.45 0
0.216667 -0.45 0
0.216667 -0.466667 0
0.233333 -0.466667 0
0.216667 -0.45 0
0.233333 -0.45 0
0.233333 -0.466667 0
0.25 -0.466667 0
0.233333 -0.45 0
0.25 -0.45 0
[...]
POINT_DATA 14400
SCALARS x1_displacement double 1
LOOKUP_TABLE default
0 -5.43382e-05 0 0.000298474 -5.43382e-05 0.000378747 0.000298474 0.000728931 0.000378747 0.00108056 0.000728931 0.00125377 0.00108056 0.00187767 0.00125377 0.00183112 0.00187767 0.00267936 0.00183112 0.00243053 0.00267936 0.0034478 0.00243053 0.00303438 0.0034478 0.00417297 0.00303438 0.00363213 0.00417297 0.00485619 0.00363213 0.0042182 0.00485619 0.00550272 0.0042182 0.00479054 0.00550272 0.00611886 0.00479054 0.00534937 0.00611886 0.00671081 0.00534937 0.00589616 0.00671081 0.00728424 0.00589616 0.00643296 0.00728424 0.00784424 0.00643296 0.00696209 0.00784424 0.00839534 0.00696209 0.00748598 0.00839534 0.00894162 0.00748598 0.00800705 0.00894162 0.00948685 0.00800705 0.00852768 0.00948685 0.0100345 0.00852768 0.00905017 0.0100345 0.0105876 0.00905017 0.00957669 0.0105876 0.0111491 0.00957669 0.0101092 0.0111491 0.0117213 0.0101092 0.0106492 0.0117213 0.0123059 0.0106492 0.0111979 0.0123059 0.0129039 0.0111979 0.011756 0.0129039 0.0135153 0.011756 0.0123231 0.0135153 0.0141391 0.0123231 0.0128985 0.0141391 0.0147733 0.0128985 0.0134804 0.0147733 0.0154145 0.0134804 0.014066 0.0154145 0.0160585 0.014066 0.014652 0.0160585 0.0167002 0.014652 0.0152344 0.0167002 0.0173341 0.0152344 0.0158088 0.0173341 0.0179545 0.0158088 0.0163705 0.0179545 0.0185556 0.0163705 0.0169151 0.0185556 0.0191323 0.0169151 0.0174385 0.0191323 0.0196802 0.0174385 0.0179372 0.0196802 0.0201957 0.0179372 0.018408 0.0201957 0.0206761 0.018408 0.0188489 0.0206761 0.0211198 0.0188489 0.0192583 0.0211198 0.0215257 0.0192583 0.0196353 0.0215257 0.0218938 0.0196353 0.0199796 0.0218938 0.0222246 0.0199796 0.0202917 0.0222246 0.0225192 0.0202917 0.0205721 0.0225192 0.0227789 0.0205721 0.0208219 0.0227789 0.0230055 0.0208219 0.0210425 0.0230055 0.0232008 0.0210425 0.0212353 0.0232008 0.023367 0.0212353 0.021402 0.023367 0.0235062 0.021402 0.0215444 0.0235062 0.0236206 0.0215444 0.0216643 0.0236206 0.0237124 0.0216643 0.0217635 0.0237124 0.0237839 0.0217635 0.0218441 0.0237839 0.0238373 0.0218441 0.0219079 0.0238373 0.023875 0.0219079 0.0219568 0.023875 0.0238992 0.0219568 0.021993 0.0238992 0.0239123 0.021993 0.0220182 0.0239123 0.0239166 0.0220182 0.0220345 0.0239166 0.0239145 0.0220345 0.0220438 0.0239145 0.0239083 0.0220438 0.022048 0.0239083 0.0239003 0.022048 0.0220488 0.0239003 0.0238926 0.0220488 0.0220478 0.0238926 0.023887 0.0220478 0.0220464 0.023887 0.0238842 0.0220464 0.0220455 0.0238842 0.0238836 0.0220455 0.0220457 0 0.000298474 0 0.000292509 0.000298474 0.000728931 0.000292509 0.000756757 0.000728931 0.00125377 0.000756757 0.00123081 0.00125377 0.00183112 0.00123081 0.00169091 0.00183112 0.00243053 0.00169091 0.00215479 0.00243053 0.00303438 0.00215479 0.00263156 0.00303438 0.00363213 0.00263156 0.00311986 0.00363213 0.0042182 0.00311986 0.00361501 0.0042182 0.00479054 0.00361501 0.00411285 0.00479054 0.00534937 0.00411285 0.0046107 0.00534937 0.00589616 0.0046107 0.00510705 0.00589616 0.00643296 0.00510705 0.00560128 0.00643296 0.00696209 0.00560128 0.0060934 0.00696209 0.00748598 0.0060934 0.00658394 0.00748598 0.00800705 0.00658394 0.00707377 0.00800705 0.00852768 0.00707377 0.00756404 0.00852768 0.00905017 0.00756404 0.00805603 0.00905017 0.00957669 0.00805603 0.00855112 0.00957669 0.0101092 0.00855112 0.00905062 0.0101092 0.0106492 0.00905062 0.0095557 0.0106492 0.0111979 0.0095557 0.0100673 0.0111979 0.011756 0.0100673 0.0105857 0.011756 0.0123231 0.0105857 0.0111111 0.0123231 0.0128985 0.0111111 0.0116425 0.0128985 0.0134804 0.0116425 0.0121786 0.0134804 0.014066 0.0121786 0.012717 0.014066 0.014652 0.012717 0.0132549 0.014652 0.0152344 0.0132549 0.0137888 0.0152344 0.0158088 0.0137888 0.0143147 0.0158088 0.0163705 0.0143147 0.0148288 0.0163705 0.0169151 0.0148288 0.0153271 0.0169151 0.0174385 0.0153271 0.0158062 0.0174385 0.0179372 0.0158062 0.0162628 0.0179372 0.018408 0.0162628 0.0166946 0.018408 0.0188489 0.0166946 0.0170998 0.0188489 0.0192583 0.0170998 0.0174771 0.0192583 0.0196353 0.0174771 0.0178258 0.0196353 0.0199796 0.0178258 0.0181458 0.0199796 0.0202917 0.0181458 0.0184374 0.0202917 0.0205721 0.0184374 0.0187011 0.0205721 0.0208219 0.0187011 0.0189378 0.0208219 0.0210425 0.0189378 0.0191486 0.0210425 0.0212353 0.0191486 0.0193348 0.0212353 0.021402 0.0193348 0.0194976 0.021402 0.0215444 0.0194976 0.0196386 0.0215444 0.0216643 0.0196386 0.0197593 0.0216643 0.0217635 0.0197593 0.0198613 0.0217635 0.0218441 0.0198613 0.0199461 0.0218441 0.0219079 0.0199461 0.0200154 0.0219079 0.0219568 0.0200154 0.0200707 0.0219568 0.021993 0.0200707 0.0201138 0.021993 0.0220182 0.0201138 0.0201463 0.0220182 0.0220345 0.0201463 0.0201698 0.0220345 0.0220438 0.0201698 0.0201858 0.0220438 0.022048 0.0201858 0.020196 0.022048 0.0220488 0.020196 0.0202017 0.0220488 0.0220478 0.0202017 0.0202044 0.0220478 0.0220464 0.0202044 0.0202055 0.0220464 0.0220455 0.0202055 0.0202061 0.0220455 0.0220457 0.0202061 0.0202075 0 0.000292509 0 0.000215651 0.000292509 0.000756757 0.000215651 0.000643102 0.000756757 0.00123081 0.000643102 0.00103863 0.00123081 0.00169091 0.00103863 0.00140562 0.00169091 0.00215479 0.00140562 0.00177808 0.00215479 0.00263156 0.00177808 0.00216854 0.00263156 0.00311986 0.00216854 0.00257676 0.00311986 0.00361501 0.00257676 0.00299953 0.00361501 0.00411285 0.00299953 0.00343369 0.00411285 0.0046107 0.00343369 0.00387619 0.0046107 0.00510705 0.00387619 0.00432434 0.00510705 0.00560128 0.00432434 0.00477601 0.00560128 0.0060934 0.00477601 0.00522969 0.0060934 0.00658394 0.00522969 0.00568453 0.00658394 0.00707377 0.00568453 0.00614024 0.00707377 0.00756404 0.00614024 0.00659699 0.00756404 0.00805603 0.00659699 0.00705534 0.00805603 0.00855112 0.00705534 0.00751609 0.00855112 0.00905062 0.00751609 0.00798022 0.00905062 0.0095557 0.00798022 0.00844871 0.0095557 0.0100673 0.00844871 0.00892245 0.0100673 0.0105857 0.00892245 0.00940203 0.0105857 0.0111111 0.00940203 0.0098876 0.0111111 0.0116425 0.0098876 0.0103787 0.0116425 0.0121786 0.0103787 0.0108742 0.0121786 0.012717 0.0108742 0.0113721 0.012717 0.0132549 0.0113721 0.0118696 0.0132549 0.0137888 0.0118696 0.0123635 0.0137888 0.0143147 0.0123635 0.0128499 0.0143147 0.0148288 0.0128499 0.0133249 0.0148288 0.0153271 0.0133249 0.0137849 0.0153271 0.0158062 0.0137849 0.0142266 0.0158062 0.0162628 0.0142266 0.0146472 0.0162628 0.0166946 0.0146472 0.0150445 0.0166946 0.0170998 0.0150445 0.0154173 0.0170998 0.0174771 0.0154173 0.0157644 0.0174771 0.0178258 0.0157644 0.0160857 0.0178258 0.0181458 0.0160857 0.0163812 0.0181458 0.0184374 0.0163812 0.0166511 0.0184374 0.0187011 0.0166511 0.0168963 0.0187011 0.0189378 0.0168963 0.0171175 0.0189378 0.0191486 0.0171175 0.0173157 0.0191486 0.0193348 0.0173157 0.017492 0.0193348 0.0194976 0.017492 0.0176475 0.0194976 0.0196386 0.0176475 0.0177834 0.0196386 0.0197593 0.0177834 0.0179011 0.0197593 0.0198613 0.0179011 0.0180017 0.0198613 0.0199461 0.0180017 0.0180868 0.0199461 0.0200154 0.0180868 0.0181574 0.0200154 0.0200707 0.0181574 0.0182151 0.0200707 0.0201138 0.0182151 0.0182612 0.0201138 0.0201463 0.0182612 0.0182969 0.0201463 0.0201698 0.0182969 0.0183237 0.0201698 0.0201858 0.0183237 0.0183429 0.0201858 0.020196 0.0183429 0.0183557 0.020196 0.0202017 0.0183557 0.0183635 0.0202017 0.0202044 0.0183635 0.0183676 0.0202044 0.0202055 0.0183676 0.0183694 0.0202055 0.0202061 0.0183694 0.0183705 0.0202061 0.0202075 0.0183705 0.0183728 0 0.000215651 0 3.2424e-05 0.000215651 0.000643102 3.2424e-05 0.000311901 0.000643102 0.00103863 0.000311901 0.000605482 0.00103863 0.00140562 0.000605482 0.000916014 0.00140562 0.00177808 0.000916014 0.00125079 0.00177808 0.00216854 0.00125079 0.00160138 0.00216854 0.00257676 0.00160138 0.00196339 0.00257676 0.00299953 0.00196339 0.0023382 0.00299953 0.00343369 0.0023382 0.00272588 0.00343369 0.00387619 0.00272588 0.00312482 0.00387619 0.00432434 0.00312482 0.00353248 0.00432434 0.00477601 0.00353248 0.00394624 0.00477601 0.00522969 0.00394624 0.00436391 0.00522969 0.00568453 0.00436391 0.0047839 0.00568453 0.00614024 0.0047839 0.00520524 0.00614024 0.00659699 0.00520524 0.00562754 0.00659699 0.00705534 0.00562754 0.00605091 0.00705534 0.00751609 0.00605091 0.0064759 0.00751609 0.00798022 0.0064759 0.00690338 0.00798022 0.00844871 0.00690338 0.0073344 0.00844871 0.00892245 0.0073344 0.00777009 0.00892245 0.00940203 0.00777009 0.00821139 0.00940203 0.0098876 0.00821139 0.00865891 0.0098876 0.0103787 0.00865891 0.0091126 0.0103787 0.0108742 0.0091126 0.00957164 0.0108742 0.0113721 0.00957164 0.0100342 0.0113721 0.0118696 0.0100342 0.0104976 0.0118696 0.0123635 0.0104976 0.0109582 0.0123635 0.0128499 0.0109582 0.0114121 0.0128499 0.0133249 0.0114121 0.011855 0.0133249 0.0137849 0.011855 0.0122831 0.0137849 0.0142266 0.0122831 0.0126931 0.0142266 0.0146472 0.0126931 0.0130822 0.0146472 0.0150445 0.0130822 0.0134488 0.0150445 0.0154173 0.0134488 0.0137917 0.0154173 0.0157644 0.0137917 0.0141104 0.0157644 0.0160857 0.0141104 0.014405 0.0160857 0.0163812 0.014405 0.0146758 0.0163812 0.0166511 0.0146758 0.0149235 0.0166511 0.0168963 0.0149235 0.0151488 0.0168963 0.0171175 0.0151488 0.0153527 0.0171175 0.0173157 0.0153527 0.0155361 0.0173157 0.017492 0.0155361 0.0157 0.017492 0.0176475 0.0157 0.0158454 0.0176475 0.0177834 0.0158454 0.0159733 0.0177834 0.0179011 0.0159733 0.0160848 0.0179011 0.0180017 0.0160848 0.0161811 0.0180017 0.0180868 0.0161811 0.016263 0.0180868 0.0181574 0.016263 0.0163318 0.0181574 0.0182151 0.0163318 0.0163885 0.0182151 0.0182612 0.0163885 0.0164342 0.0182612 0.0182969 0.0164342 0.01647 0.0182969 0.0183237 0.01647 0.0164971 0.0183237 0.0183429 0.0164971 0.0165165 0.0183429 0.0183557 0.0165165 0.0165295 0.0183557 0.0183635 0.0165295 0.0165371 0.0183635 0.0183676 0.0165371 0.0165408 0.0183676 0.0183694 0.0165408 0.0165421 0.0183694 0.0183705 0.0165421 0.0165427 0.0183705 0.0183728 0.0165427 0.0165451 0 3.2424e-05 0 -0.00093426 3.2424e-05 0.000311901 -0.00093426 -0.000624381 0.000311901 0.000605482 -0.000624381 -0.000213686 0.000605482 0.000916014 -0.000213686 0.000174433 0.000916014 0.00125079 0.000174433 0.00055457 0.00125079 0.00160138 0.00055457 0.000910746 0.00160138 0.00196339 0.000910746 0.00125915 0.00196339 0.0023382 0.00125915 0.00161134 0.0023382 0.00272588 0.00161134 0.00197253 0.00272588 0.00312482 0.00197253 0.00234308 0.00312482 0.00353248 0.00234308 0.00272124 0.00353248 0.00394624 0.00272124 0.00310477 0.00394624 0.00436391 0.00310477 0.00349154 0.00436391 0.0047839 0.00349154 0.00387985 0.0047839 0.00520524 0.00387985 0.00426858 0.00520524 0.00562754 0.00426858 0.00465716 0.00562754 0.00605091 0.00465716 0.00504563 0.00605091 0.0064759 0.00504563 0.00543451 0.0064759 0.00690338 0.00543451 0.00582483 0.00690338 0.0073344 0.00582483 0.00621794 0.0073344 0.00777009 0.00621794 0.00661543 0.00777009 0.00821139 0.00661543 0.00701886 0.00821139 0.00865891 0.00701886 0.00742946 0.00865891 0.0091126 0.00742946 0.00784783 0.0091126 0.00957164 0.00784783 0.00827356 0.00957164 0.0100342 0.00827356 0.00870501 0.0100342 0.0104976 0.00870501 0.00913928 0.0104976 0.0109582 0.00913928 0.00957234 0.0109582 0.0114121 0.00957234 0.00999953 0.0114121 0.011855 0.00999953 0.010416 0.011855 0.0122831 0.010416 0.0108174 0.0122831 0.0126931 0.0108174 0.0112 0.0126931 0.0130822 0.0112 0.0115614 0.0130822 0.0134488 0.0115614 0.0118999 0.0134488 0.0137917 0.0118999 0.0122149 0.0137917 0.0141104 0.0122149 0.0125064 0.0141104 0.014405 0.0125064 0.0127749 0.014405 0.0146758 0.0127749 0.0130211 0.0146758 0.0149235 0.0130211 0.013246 0.0149235 0.0151488 0.013246 0.0134506 0.0151488 0.0153527 0.0134506 0.0136359 0.0153527 0.0155361 0.0136359 0.0138028 0.0155361 0.0157 0.0138028 0.0139525 0.0157 0.0158454 0.0139525 0.0140857 0.0158454 0.0159733 0.0140857 0.0142033 0.0159733 0.0160848 0.0142033 0.0143063 0.0160848 0.0161811 0.0143063 0.0143955 0.0161811 0.016263 0.0143955 0.0144718 0.016263 0.0163318 0.0144718 0.0145361 0.0163318 0.0163885 0.0145361 0.0145892 0.0163885 0.0164342 0.0145892 0.014632 0.0164342 0.01647 0.014632 0.0146654 0.01647 0.0164971 0.0146654 0.0146904 0.0164971 0.0165165 0.0146904 0.0147079 0.0165165 0.0165295 0.0147079 0.014719 0.0165295 0.0165371 0.014719 0.0147248 0.0165371 0.0165408 0.0147248 0.0147267 0.0165408 0.0165421 0.0147267 0.0147263 0.0165421 0.0165427 0.0147263 0.0147256 0.0165427 0.0165451 0.0147256 0.0147273 0 -0.00093426 0 -0.00137603 -0.00093426 -0.000624381 -0.00137603 -0.00205741 -0.000624381 -0.000213686 -0.00205741 -0.00136583 -0.000213686 0.000174433 -0.00136583 -0.000748255 0.000174433 0.00055457 -0.000748255 -0.000288504 0.00055457 0.000910746 -0.000288504 9.95873e-05 0.000910746 0.00125915 9.95873e-05 0.000458779 0.00125915 0.00161134 0.000458779 0.000812203 0.00161134 0.00197253 0.000812203 0.00116731 0.00197253 0.00234308 0.00116731 0.00152553 0.00234308 0.00272124 0.00152553 0.00188645 0.00272124 0.00310477 0.00188645 0.00224881 0.00310477 0.00349154 0.00224881 0.00261118 0.00349154 0.00387985 0.00261118 0.00297236 0.00387985 0.00426858 0.00297236 0.0033315 0.00426858 0.00465716 0.0033315 0.00368826 0.00465716 0.00504563 0.00368826 0.00404284 0.00504563 0.00543451 0.00404284 0.004396 0.00543451 0.00582483 0.004396 0.00474911 0.00582483 0.00621794 0.00474911 0.00510404 0.00621794 0.00661543 0.00510404 0.00546303 0.00661543 0.00701886 0.00546303 0.00582851 0.00701886 0.00742946 0.00582851 0.00620266 0.00742946 0.00784783 0.00620266 0.00658694 0.00784783 0.00827356 0.00658694 0.0069816 0.00827356 0.00870501 0.0069816 0.00738523 0.00870501 0.00913928 0.00738523 0.00779461 0.00913928 0.00957234 0.00779461 0.00820494 0.00957234 0.00999953 0.00820494 0.00861046 0.00999953 0.010416 0.00861046 0.00900526 0.010416 0.0108174 0.00900526 0.00938409 0.0108174 0.0112 0.00938409 0.00974291 0.0112 0.0115614 0.00974291 0.0100791 0.0115614 0.0118999 0.0100791 0.0103915 0.0118999 0.0122149 0.0103915 0.0106799 0.0122149 0.0125064 0.0106799 0.0109448 0.0125064 0.0127749 0.0109448 0.0111875 0.0127749 0.0130211 0.0111875 0.011409 0.0130211 0.013246 0.011409 0.0116108 0.013246 0.0134506 0.0116108 0.011794 0.0134506 0.0136359 0.011794 0.0119599 0.0136359 0.0138028 0.0119599 0.0121093 0.0138028 0.0139525 0.0121093 0.0122434 0.0139525 0.0140857 0.0122434 0.0123629 0.0140857 0.0142033 0.0123629 0.0124686 0.0142033 0.0143063 0.0124686 0.0125613 0.0143063 0.0143955 0.0125613 0.0126416 0.0143955 0.0144718 0.0126416 0.0127103 0.0144718 0.0145361 0.0127103 0.012768 0.0145361 0.0145892 0.012768 0.0128155 0.0145892 0.014632 0.0128155 0.0128534 0.014632 0.0146654 0.0128534 0.0128825 0.0146654 0.0146904 0.0128825 0.0129036 0.0146904 0.0147079 0.0129036 0.0129176 0.0147079 0.014719 0.0129176 0.0129253 0.014719 0.0147248 0.0129253 0.0129281 0.0147248 0.0147267 0.0129281 0.0129271 0.0147267 0.0147263 0.0129271 0.0129241 0.0147263 0.0147256 0.0129241 0.0129212 0.0147256 0.0147273 0.0129212 0.0129212 0 -0.00137603 0 -0.00113248 -0.00137603 -0.00205741 -0.00113248 -0.00232263 -0.00205741 -0.00136583 -0.00232263 -0.0023345 -0.00136583 -0.000748255 -0.0023345 -0.00174406 -0.000748255 -0.000288504 -0.00174406 -0.00124511 -0.000288504 9.95873e-05 -0.00124511 -0.000823898 9.95873e-05 0.000458779 -0.000823898 -0.000431771 0.000458779 0.000812203 -0.000431771 -5.36645e-05 0.000812203 0.00116731 -5.36645e-05 0.000314028 0.00116731 0.00152553 0.000314028 0.000674797 0.00152553 0.00188645 0.000674797 0.00103004 0.00188645 0.00224881 0.00103004 0.00138008 0.00224881 0.00261118 0.00138008 0.00172477 0.00261118 0.00297236 0.00172477 0.00206379 0.00297236 0.0033315 0.00206379 0.00239696 0.0033315 0.00368826 0.00239696 0.00272438 0.00368826 0.00404284 0.00272438 0.00304665 0.00404284 0.004396 0.00304665 0.00336492 0.004396 0.00474911 0.00336492 0.00368101 0.00474911 0.00510404 0.00368101 0.00399743 0.00510404 0.00546303 0.00399743 0.00431728 0.00546303 0.00582851 0.00431728 0.0046441 0.00582851 0.00620266 0.0046441 0.00498133 0.00620266 0.00658694 0.00498133 0.00533174 0.00658694 0.0069816 0.00533174 0.00569657 0.0069816 0.00738523 0.00569657 0.00607483 0.00738523 0.00779461 0.00607483 0.0064629 0.00779461 0.00820494 0.0064629 0.00685482 0.00820494 0.00861046 0.00685482 0.00724318 0.00861046 0.00900526 0.00724318 0.00762042 0.00900526 0.00938409 0.00762042 0.00798007 0.00938409 0.00974291 0.00798007 0.00831754 0.00974291 0.0100791 0.00831754 0.00863029 0.0100791 0.0103915 0.00863029 0.00891756 0.0103915 0.0106799 0.00891756 0.00917992 0.0106799 0.0109448 0.00917992 0.0094187 0.0109448 0.0111875 0.0094187 0.00963563 0.0111875 0.011409 0.00963563 0.00983246 0.011409 0.0116108 0.00983246 0.0100109 0.0116108 0.011794 0.0100109 0.0101724 0.011794 0.0119599 0.0101724 0.0103182 0.0119599 0.0121093 0.0103182 0.0104495 0.0121093 0.0122434 0.0104495 0.0105671 0.0122434 0.0123629 0.0105671 0.010672 0.0123629 0.0124686 0.010672 0.0107646 0.0124686 0.0125613 0.0107646 0.0108457 0.0125613 0.0126416 0.0108457 0.0109158 0.0126416 0.0127103 0.0109158 0.0109755 0.0127103 0.012768 0.0109755 0.0110253 0.012768 0.0128155 0.0110253 0.0110656 0.0128155 0.0128534 0.0110656 0.0110972 0.0128534 0.0128825 0.0110972 0.0111206 0.0128825 0.0129036 0.0111206 0.0111364 0.0129036 0.0129176 0.0111364 0.0111456 0.0129176 0.0129253 0.0111456 0.0111489 0.0129253 0.0129281 0.0111489 0.0111476 0.0129281 0.0129271 0.0111476 0.0111429 0.0129271 0.0129241 0.0111429 0.0111365 0.0129241 0.0129212 0.0111365 0.0111306 0.0129212 0.0129212 0.0111306 0.011128 0 -0.00113248 0 -0.00111757 -0.00113248 -0.00232263 -0.00111757 -0.00235966 -0.00232263 -0.0023345 -0.00235966 -0.0033058 -0.0023345 -0.00174406 -0.0033058 -0.00291665 -0.00174406 -0.00124511 -0.00291665 -0.00234485 -0.00124511 -0.000823898 -0.00234485 -0.00185093 -0.000823898 -0.000431771 -0.00185093 -0.0013899 -0.000431771 -5.36645e-05 -0.0013899 -0.000968655 -5.36645e-05 0.000314028 -0.000968655 -0.000574041 0.000314028 0.000674797 -0.000574041 -0.00019936 0.000674797 0.00103004 -0.00019936 0.000159275 0.00103004 0.00138008 0.000159275 0.000504332 0.00138008 0.00172477 0.000504332 0.000837203 0.00172477 0.00206379 0.000837203 0.00115872 0.00206379 0.00239696 0.00115872 0.0014695 0.00239696 0.00272438 0.0014695 0.00177028 0.00272438 0.00304665 0.00177028 0.0020621 0.00304665 0.00336492 0.0020621 0.00234654 0.00336492 0.00368101 0.00234654 0.0026259 0.00368101 0.00399743 0.0026259 0.00290334 0.00399743 0.00431728 0.00290334 0.00318294 0.00431728 0.0046441 0.00318294 0.00346952 0.0046441 0.00498133 0.00346952 0.00376823 0.00498133 0.00533174 0.00376823 0.00408368 0.00533174 0.00569657 0.00408368 0.00441873 0.00569657 0.00607483 0.00441873 0.00477318 0.00607483 0.0064629 0.00477318 0.00514302 0.0064629 0.00685482 0.00514302 0.00552059 0.00685482 0.00724318 0.00552059 0.00589601 0.00724318 0.00762042 0.00589601 0.00625933 0.00762042 0.00798007 0.00625933 0.00660243 0.00798007 0.00831754 0.00660243 0.00692008 0.00831754 0.00863029 0.00692008 0.00721005 0.00863029 0.00891756 0.00721005 0.0074724 0.00891756 0.00917992 0.0074724 0.00770869 0.00917992 0.0094187 0.00770869 0.00792118 0.0094187 0.00963563 0.00792118 0.0081123 0.00963563 0.00983246 0.0081123 0.00828436 0.00983246 0.0100109 0.00828436 0.00843938 0.0100109 0.0101724 0.00843938 0.00857906 0.0101724 0.0103182 0.00857906 0.00870478 0.0103182 0.0104495 0.00870478 0.00881764 0.0104495 0.0105671 0.00881764 0.00891853 0.0105671 0.010672 0.00891853 0.00900817 0.010672 0.0107646 0.00900817 0.00908714 0.0107646 0.0108457 0.00908714 0.00915594 0.0108457 0.0109158 0.00915594 0.00921499 0.0109158 0.0109755 0.00921499 0.0092647 0.0109755 0.0110253 0.0092647 0.00930549 0.0110253 0.0110656 0.00930549 0.00933775 0.0110656 0.0110972 0.00933775 0.00936195 0.0110972 0.0111206 0.00936195 0.00937859 0.0111206 0.0111364 0.00937859 0.00938828 0.0111364 0.0111456 0.00938828 0.00939174 0.0111456 0.0111489 0.00939174 0.00938983 0.0111489 0.0111476 0.00938983 0.00938362 0.0111476 0.0111429 0.00938362 0.00937446 0.0111429 0.0111365 0.00937446 0.00936403 0.0111365 0.0111306 0.00936403 0.00935445 0.0111306 0.011128 0.00935445