# vtk DataFile Version 3.0
#This file was generated by the deal.II library on 2021/2/10 at 3:18:10
ASCII
DATASET UNSTRUCTURED_GRID

POINTS 14400 double
0 -0.5 0
0.0166667 -0.5 0
0 -0.483333 0
0.0166667 -0.483333 0
0.0166667 -0.5 0
0.0333333 -0.5 0
0.0166667 -0.483333 0
0.0333333 -0.483333 0
0.0333333 -0.5 0
0.05 -0.5 0
0.0333333 -0.483333 0
0.05 -0.483333 0
0.05 -0.5 0
0.0666667 -0.5 0
0.05 -0.483333 0
0.0666667 -0.483333 0
0.0666667 -0.5 0
0.0833333 -0.5 0
0.0666667 -0.483333 0
0.0833333 -0.483333 0
0.0833333 -0.5 0
0.1 -0.5 0
0.0833333 -0.483333 0
0.1 -0.483333 0
0.1 -0.5 0
0.116667 -0.5 0
0.1 -0.483333 0
0.116667 -0.483333 0
0.116667 -0.5 0
0.133333 -0.5 0
0.116667 -0.483333 0
0.133333 -0.483333 0
0.133333 -0.5 0
0.15 -0.5 0
0.133333 -0.483333 0
0.15 -0.483333 0
0.15 -0.5 0
0.166667 -0.5 0
0.15 -0.483333 0
0.166667 -0.483333 0
0.166667 -0.5 0
0.183333 -0.5 0
0.166667 -0.483333 0
0.183333 -0.483333 0
0.183333 -0.5 0
0.2 -0.5 0
0.183333 -0.483333 0
0.2 -0.483333 0
0.2 -0.5 0
0.216667 -0.5 0
0.2 -0.483333 0
0.216667 -0.483333 0
0.216667 -0.5 0
0.233333 -0.5 0
0.216667 -0.483333 0
0.233333 -0.483333 0
0.233333 -0.5 0
0.25 -0.5 0
0.233333 -0.483333 0
0.25 -0.483333 0
0.25 -0.5 0
0.266667 -0.5 0
0.25 -0.483333 0
0.266667 -0.483333 0
0.266667 -0.5 0
0.283333 -0.5 0
0.266667 -0.483333 0
0.283333 -0.483333 0
0.283333 -0.5 0
0.3 -0.5 0
0.283333 -0.483333 0
0.3 -0.483333 0
0.3 -0.5 0
0.316667 -0.5 0
0.3 -0.483333 0
0.316667 -0.483333 0
0.316667 -0.5 0
0.333333 -0.5 0
0.316667 -0.483333 0
0.333333 -0.483333 0
0.333333 -0.5 0
0.35 -0.5 0
0.333333 -0.483333 0
0.35 -0.483333 0
0.35 -0.5 0
0.366667 -0.5 0
0.35 -0.483333 0
0.366667 -0.483333 0
0.366667 -0.5 0
0.383333 -0.5 0
0.366667 -0.483333 0
0.383333 -0.483333 0
0.383333 -0.5 0
0.4 -0.5 0
0.383333 -0.483333 0
0.4 -0.483333 0
0.4 -0.5 0
0.416667 -0.5 0
0.4 -0.483333 0
0.416667 -0.483333 0
0.416667 -0.5 0
0.433333 -0.5 0
0.416667 -0.483333 0
0.433333 -0.483333 0
0.433333 -0.5 0
0.45 -0.5 0
0.433333 -0.483333 0
0.45 -0.483333 0
0.45 -0.5 0
0.466667 -0.5 0
0.45 -0.483333 0
0.466667 -0.483333 0
0.466667 -0.5 0
0.483333 -0.5 0
0.466667 -0.483333 0
0.483333 -0.483333 0
0.483333 -0.5 0
0.5 -0.5 0
0.483333 -0.483333 0
0.5 -0.483333 0
0.5 -0.5 0
0.516667 -0.5 0
0.5 -0.483333 0
0.516667 -0.483333 0
0.516667 -0.5 0
0.533333 -0.5 0
0.516667 -0.483333 0
0.533333 -0.483333 0
0.533333 -0.5 0
0.55 -0.5 0
0.533333 -0.483333 0
0.55 -0.483333 0
0.55 -0.5 0
0.566667 -0.5 0
0.55 -0.483333 0
0.566667 -0.483333 0
0.566667 -0.5 0
0.583333 -0.5 0
0.566667 -0.483333 0
0.583333 -0.483333 0
0.583333 -0.5 0
0.6 -0.5 0
0.583333 -0.483333 0
0.6 -0.483333 0
0.6 -0.5 0
0.616667 -0.5 0
0.6 -0.483333 0
0.616667 -0.483333 0
0.616667 -0.5 0
0.633333 -0.5 0
0.616667 -0.483333 0
0.633333 -0.483333 0
0.633333 -0.5 0
0.65 -0.5 0
0.633333 -0.483333 0
0.65 -0.483333 0
0.65 -0.5 0
0.666667 -0.5 0
0.65 -0.483333 0
0.666667 -0.483333 0
0.666667 -0.5 0
0.683333 -0.5 0
0.666667 -0.483333 0
0.683333 -0.483333 0
0.683333 -0.5 0
0.7 -0.5 0
0.683333 -0.483333 0
0.7 -0.483333 0
0.7 -0.5 0
0.716667 -0.5 0
0.7 -0.483333 0
0.716667 -0.483333 0
0.716667 -0.5 0
0.733333 -0.5 0
0.716667 -0.483333 0
0.733333 -0.483333 0
0.733333 -0.5 0
0.75 -0.5 0
0.733333 -0.483333 0
0.75 -0.483333 0
0.75 -0.5 0
0.766667 -0.5 0
0.75 -0.483333 0
0.766667 -0.483333 0
0.766667 -0.5 0
0.783333 -0.5 0
0.766667 -0.483333 0
0.783333 -0.483333 0
0.783333 -0.5 0
0.8 -0.5 0
0.783333 -0.483333 0
0.8 -0.483333 0
0.8 -0.5 0
0.816667 -0.5 0
0.8 -0.483333 0
0.816667 -0.483333 0
0.816667 -0.5 0
0.833333 -0.5 0
0.816667 -0.483333 0
0.833333 -0.483333 0
0.833333 -0.5 0
0.85 -0.5 0
0.833333 -0.483333 0
0.85 -0.483333 0
0.85 -0.5 0
0.866667 -0.5 0
0.85 -0.483333 0
0.866667 -0.483333 0
0.866667 -0.5 0
0.883333 -0.5 0
0.866667 -0.483333 0
0.883333 -0.483333 0
0.883333 -0.5 0
0.9 -0.5 0
0.883333 -0.483333 0
0.9 -0.483333 0
0.9 -0.5 0
0.916667 -0.5 0
0.9 -0.483333 0
0.916667 -0.483333 0
0.916667 -0.5 0
0.933333 -0.5 0
0.916667 -0.483333 0
0.933333 -0.483333 0
0.933333 -0.5 0
0.95 -0.5 0
0.933333 -0.483333 0
0.95 -0.483333 0
0.95 -0.5 0
0.966667 -0.5 0
0.95 -0.483333 0
0.966667 -0.483333 0
0.966667 -0.5 0
0.983333 -0.5 0
0.966667 -0.483333 0
0.983333 -0.483333 0
0.983333 -0.5 0
1 -0.5 0
0.983333 -0.483333 0
1 -0.483333 0
0 -0.483333 0
0.0166667 -0.483333 0
0 -0.466667 0
0.0166667 -0.466667 0
0.0166667 -0.483333 0
0.0333333 -0.483333 0
0.0166667 -0.466667 0
0.0333333 -0.466667 0
0.0333333 -0.483333 0
0.05 -0.483333 0
0.0333333 -0.466667 0
0.05 -0.466667 0
0.05 -0.483333 0
0.0666667 -0.483333 0
0.05 -0.466667 0
0.0666667 -0.466667 0
0.0666667 -0.483333 0
0.0833333 -0.483333 0
0.0666667 -0.466667 0
0.0833333 -0.466667 0
0.0833333 -0.483333 0
0.1 -0.483333 0
0.0833333 -0.466667 0
0.1 -0.466667 0
0.1 -0.483333 0
0.116667 -0.483333 0
0.1 -0.466667 0
0.116667 -0.466667 0
0.116667 -0.483333 0
0.133333 -0.483333 0
0.116667 -0.466667 0
0.133333 -0.466667 0
0.133333 -0.483333 0
0.15 -0.483333 0
0.133333 -0.466667 0
0.15 -0.466667 0
0.15 -0.483333 0
0.166667 -0.483333 0
0.15 -0.466667 0
0.166667 -0.466667 0
0.166667 -0.483333 0
0.183333 -0.483333 0
0.166667 -0.466667 0
0.183333 -0.466667 0
0.183333 -0.483333 0
0.2 -0.483333 0
0.183333 -0.466667 0
0.2 -0.466667 0
0.2 -0.483333 0
0.216667 -0.483333 0
0.2 -0.466667 0
0.216667 -0.466667 0
0.216667 -0.483333 0
0.233333 -0.483333 0
0.216667 -0.466667 0
0.233333 -0.466667 0
0.233333 -0.483333 0
0.25 -0.483333 0
0.233333 -0.466667 0
0.25 -0.466667 0
0.25 -0.483333 0
0.266667 -0.483333 0
0.25 -0.466667 0
0.266667 -0.466667 0
0.266667 -0.483333 0
0.283333 -0.483333 0
0.266667 -0.466667 0
0.283333 -0.466667 0
0.283333 -0.483333 0
0.3 -0.483333 0
0.283333 -0.466667 0
0.3 -0.466667 0
0.3 -0.483333 0
0.316667 -0.483333 0
0.3 -0.466667 0
0.316667 -0.466667 0
0.316667 -0.483333 0
0.333333 -0.483333 0
0.316667 -0.466667 0
0.333333 -0.466667 0
0.333333 -0.483333 0
0.35 -0.483333 0
0.333333 -0.466667 0
0.35 -0.466667 0
0.35 -0.483333 0
0.366667 -0.483333 0
0.35 -0.466667 0
0.366667 -0.466667 0
0.366667 -0.483333 0
0.383333 -0.483333 0
0.366667 -0.466667 0
0.383333 -0.466667 0
0.383333 -0.483333 0
0.4 -0.483333 0
0.383333 -0.466667 0
0.4 -0.466667 0
0.4 -0.483333 0
0.416667 -0.483333 0
0.4 -0.466667 0
0.416667 -0.466667 0
0.416667 -0.483333 0
0.433333 -0.483333 0
0.416667 -0.466667 0
0.433333 -0.466667 0
0.433333 -0.483333 0
0.45 -0.483333 0
0.433333 -0.466667 0
0.45 -0.466667 0
0.45 -0.483333 0
0.466667 -0.483333 0
0.45 -0.466667 0
0.466667 -0.466667 0
0.466667 -0.483333 0
0.483333 -0.483333 0
0.466667 -0.466667 0
0.483333 -0.466667 0
0.483333 -0.483333 0
0.5 -0.483333 0
0.483333 -0.466667 0
0.5 -0.466667 0
0.5 -0.483333 0
0.516667 -0.483333 0
0.5 -0.466667 0
0.516667 -0.466667 0
0.516667 -0.483333 0
0.533333 -0.483333 0
0.516667 -0.466667 0
0.533333 -0.466667 0
0.533333 -0.483333 0
0.55 -0.483333 0
0.533333 -0.466667 0
0.55 -0.466667 0
0.55 -0.483333 0
0.566667 -0.483333 0
0.55 -0.466667 0
0.566667 -0.466667 0
0.566667 -0.483333 0
0.583333 -0.483333 0
0.566667 -0.466667 0
0.583333 -0.466667 0
0.583333 -0.483333 0
0.6 -0.483333 0
0.583333 -0.466667 0
0.6 -0.466667 0
0.6 -0.483333 0
0.616667 -0.483333 0
0.6 -0.466667 0
0.616667 -0.466667 0
0.616667 -0.483333 0
0.633333 -0.483333 0
0.616667 -0.466667 0
0.633333 -0.466667 0
0.633333 -0.483333 0
0.65 -0.483333 0
0.633333 -0.466667 0
0.65 -0.466667 0
0.65 -0.483333 0
0.666667 -0.483333 0
0.65 -0.466667 0
0.666667 -0.466667 0
0.666667 -0.483333 0
0.683333 -0.483333 0
0.666667 -0.466667 0
0.683333 -0.466667 0
0.683333 -0.483333 0
0.7 -0.483333 0
0.683333 -0.466667 0
0.7 -0.466667 0
0.7 -0.483333 0
0.716667 -0.483333 0
0.7 -0.466667 0
0.716667 -0.466667 0
0.716667 -0.483333 0
0.733333 -0.483333 0
0.716667 -0.466667 0
0.733333 -0.466667 0
0.733333 -0.483333 0
0.75 -0.483333 0
0.733333 -0.466667 0
0.75 -0.466667 0
0.75 -0.483333 0
0.766667 -0.483333 0
0.75 -0.466667 0
0.766667 -0.466667 0
0.766667 -0.483333 0
0.783333 -0.483333 0
0.766667 -0.466667 0
0.783333 -0.466667 0
0.783333 -0.483333 0
0.8 -0.483333 0
0.783333 -0.466667 0
0.8 -0.466667 0
0.8 -0.483333 0
0.816667 -0.483333 0
0.8 -0.466667 0
0.816667 -0.466667 0
0.816667 -0.483333 0
0.833333 -0.483333 0
0.816667 -0.466667 0
0.833333 -0.466667 0
0.833333 -0.483333 0
0.85 -0.483333 0
0.833333 -0.466667 0
0.85 -0.466667 0
0.85 -0.483333 0
0.866667 -0.483333 0
0.85 -0.466667 0
0.866667 -0.466667 0
0.866667 -0.483333 0
0.883333 -0.483333 0
0.866667 -0.466667 0
0.883333 -0.466667 0
0.883333 -0.483333 0
0.9 -0.483333 0
0.883333 -0.466667 0
0.9 -0.466667 0
0.9 -0.483333 0
0.916667 -0.483333 0
0.9 -0.466667 0
0.916667 -0.466667 0
0.916667 -0.483333 0
0.933333 -0.483333 0
0.916667 -0.466667 0
0.933333 -0.466667 0
0.933333 -0.483333 0
0.95 -0.483333 0
0.933333 -0.466667 0
0.95 -0.466667 0
0.95 -0.483333 0
0.966667 -0.483333 0
0.95 -0.466667 0
0.966667 -0.466667 0
0.966667 -0.483333 0
0.983333 -0.483333 0
0.966667 -0.466667 0
0.983333 -0.466667 0
0.983333 -0.483333 0
1 -0.483333 0
0.983333 -0.466667 0
1 -0.466667 0
0 -0.466667 0
0.0166667 -0.466667 0
0 -0.45 0
0.0166667 -0.45 0
0.0166667 -0.466667 0
0.0333333 -0.466667 0
0.0166667 -0.45 0
0.0333333 -0.45 0
0.0333333 -0.466667 0
0.05 -0.466667 0
0.0333333 -0.45 0
0.05 -0.45 0
0.05 -0.466667 0
0.0666667 -0.466667 0
0.05 -0.45 0
0.0666667 -0.45 0
0.0666667 -0.466667 0
0.0833333 -0.466667 0
0.0666667 -0.45 0
0.0833333 -0.45 0
0.0833333 -0.466667 0
0.1 -0.466667 0
0.0833333 -0.45 0
0.1 -0.45 0
0.1 -0.466667 0
0.116667 -0.466667 0
0.1 -0.45 0
0.116667 -0.45 0
0.116667 -0.466667 0
0.133333 -0.466667 0
0.116667 -0.45 0
0.133333 -0.45 0
0.133333 -0.466667 0
0.15 -0.466667 0
0.133333 -0.45 0
0.15 -0.45 0
0.15 -0.466667 0
0.166667 -0.466667 0
0.15 -0.45 0
0.166667 -0.45 0
0.166667 -0.466667 0
0.183333 -0.466667 0
0.166667 -0.45 0
0.183333 -0.45 0
0.183333 -0.466667 0
0.2 -0.466667 0
0.183333 -0.45 0
0.2 -0.45 0
0.2 -0.466667 0
0.216667 -0.466667 0
0.2 -0.45 0
0.216667 -0.45 0
0.216667 -0.466667 0
0.233333 -0.466667 0
0.216667 -0.45 0
0.233333 -0.45 0
0.233333 -0.466667 0
0.25 -0.466667 0
0.233333 -0.45 0
0.25 -0.45 0
[...]
POINT_DATA 14400
SCALARS x1_displacement double 1
LOOKUP_TABLE default
0 -0.00262876 0 -0.00114421 -0.00262876 -0.00410625 -0.00114421 -0.00272967 -0.00410625 -0.00348725 -0.00272967 -0.00322054 -0.00348725 -0.00263892 -0.00322054 -0.00288821 -0.00263892 -0.00192183 -0.00288821 -0.00240713 -0.00192183 -0.00126033 -0.00240713 -0.00187736 -0.00126033 -0.000632439 -0.00187736 -0.00132628 -0.000632439 -2.22067e-05 -0.00132628 -0.000766491 -2.22067e-05 0.000576885 -0.000766491 -0.000205207 0.000576885 0.001167 -0.000205207 0.000354711 0.001167 0.00174887 0.000354711 0.00091108 0.00174887 0.00232276 0.00091108 0.00146271 0.00232276 0.00288943 0.00146271 0.00200946 0.00288943 0.00345057 0.00200946 0.00255218 0.00345057 0.00400886 0.00255218 0.00309254 0.00400886 0.00456777 0.00309254 0.00363285 0.00456777 0.0051313 0.00363285 0.00417581 0.0051313 0.0057035 0.00417581 0.00472415 0.0057035 0.00628809 0.00472415 0.00528037 0.00628809 0.00688792 0.00528037 0.00584632 0.00688792 0.0075045 0.00584632 0.00642282 0.0075045 0.00813752 0.00642282 0.00700942 0.00813752 0.00878456 0.00700942 0.00760408 0.00878456 0.00944099 0.00760408 0.00820314 0.00944099 0.0101001 0.00820314 0.00880143 0.0101001 0.0107536 0.00880143 0.00939254 0.0107536 0.0113921 0.00939254 0.0099694 0.0113921 0.0120064 0.0099694 0.0105248 0.0120064 0.0125878 0.0105248 0.0110521 0.0125878 0.0131293 0.0110521 0.0115456 0.0131293 0.0136257 0.0115456 0.0120013 0.0136257 0.0140742 0.0120013 0.0124166 0.0140742 0.0144742 0.0124166 0.0127906 0.0144742 0.0148269 0.0127906 0.0131237 0.0148269 0.0151351 0.0131237 0.0134175 0.0151351 0.0154024 0.0134175 0.0136741 0.0154024 0.0156326 0.0136741 0.0138961 0.0156326 0.0158296 0.0138961 0.0140859 0.0158296 0.0159968 0.0140859 0.0142459 0.0159968 0.0161368 0.0142459 0.0143778 0.0161368 0.0162516 0.0143778 0.0144829 0.0162516 0.0163428 0.0144829 0.0145623 0.0163428 0.0164117 0.0145623 0.0146167 0.0164117 0.0164601 0.0146167 0.0146474 0.0164601 0.0164905 0.0146474 0.0146555 0.0164905 0.0165061 0.0146555 0.0146432 0.0165061 0.0165108 0.0146432 0.0146127 0.0165108 0.0165092 0.0146127 0.0145667 0.0165092 0.0165063 0.0145667 0.0145079 0.0165063 0.0165078 0.0145079 0.0144392 0.0165078 0.0165204 0.0144392 0.0143638 0.0165204 0.0165525 0.0143638 0.0142852 0.0165525 0.0166126 0.0142852 0.0142083 0.0166126 0.0167035 0.0142083 0.0141397 0.0167035 0.0168133 0.0141397 0.0140825 0.0168133 0.0169114 0.0140825 0.0140267 0.0169114 0.0169695 0.0140267 0.0139578 0.0169695 0.0169897 0.0139578 0.0138848 0.0169897 0.0169965 0.0138848 0.0138397 0.0169965 0.0169991 0.0138397 0.0138291 0 -0.00114421 0 -0.00116661 -0.00114421 -0.00272967 -0.00116661 -0.00246546 -0.00272967 -0.00322054 -0.00246546 -0.00354378 -0.00322054 -0.00288821 -0.00354378 -0.0033918 -0.00288821 -0.00240713 -0.0033918 -0.00298761 -0.00240713 -0.00187736 -0.00298761 -0.0025306 -0.00187736 -0.00132628 -0.0025306 -0.00203019 -0.00132628 -0.000766491 -0.00203019 -0.00151179 -0.000766491 -0.000205207 -0.00151179 -0.000981974 -0.000205207 0.000354711 -0.000981974 -0.000448015 0.000354711 0.00091108 -0.000448015 8.49972e-05 0.00091108 0.00146271 8.49972e-05 0.000614374 0.00146271 0.00200946 0.000614374 0.00113906 0.00200946 0.00255218 0.00113906 0.00165925 0.00255218 0.00309254 0.00165925 0.00217608 0.00309254 0.00363285 0.00217608 0.00269129 0.00363285 0.00417581 0.00269129 0.00320704 0.00417581 0.00472415 0.00320704 0.0037256 0.00472415 0.00528037 0.0037256 0.00424912 0.00528037 0.00584632 0.00424912 0.0047793 0.00584632 0.00642282 0.0047793 0.0053171 0.00642282 0.00700942 0.0053171 0.0058624 0.00700942 0.00760408 0.0058624 0.00641372 0.00760408 0.00820314 0.00641372 0.0069681 0.00820314 0.00880143 0.0069681 0.00752111 0.00880143 0.00939254 0.00752111 0.0080671 0.00939254 0.0099694 0.0080671 0.0085997 0.0099694 0.0105248 0.0085997 0.00911242 0.0105248 0.0110521 0.00911242 0.00959924 0.0110521 0.0115456 0.00959924 0.0100552 0.0115456 0.0120013 0.0100552 0.0104765 0.0120013 0.0124166 0.0104765 0.0108611 0.0124166 0.0127906 0.0108611 0.0112082 0.0127906 0.0131237 0.0112082 0.0115182 0.0131237 0.0134175 0.0115182 0.0117923 0.0134175 0.0136741 0.0117923 0.0120322 0.0136741 0.0138961 0.0120322 0.0122399 0.0138961 0.0140859 0.0122399 0.0124172 0.0140859 0.0142459 0.0124172 0.0125655 0.0142459 0.0143778 0.0125655 0.0126858 0.0143778 0.0144829 0.0126858 0.0127785 0.0144829 0.0145623 0.0127785 0.0128436 0.0145623 0.0146167 0.0128436 0.0128808 0.0146167 0.0146474 0.0128808 0.01289 0.0146474 0.0146555 0.01289 0.0128712 0.0146555 0.0146432 0.0128712 0.0128252 0.0146432 0.0146127 0.0128252 0.0127531 0.0146127 0.0145667 0.0127531 0.0126557 0.0145667 0.0145079 0.0126557 0.0125335 0.0145079 0.0144392 0.0125335 0.0123862 0.0144392 0.0143638 0.0123862 0.0122136 0.0143638 0.0142852 0.0122136 0.0120167 0.0142852 0.0142083 0.0120167 0.011797 0.0142083 0.0141397 0.011797 0.0115656 0.0141397 0.0140825 0.0115656 0.0113491 0.0140825 0.0140267 0.0113491 0.0111477 0.0140267 0.0139578 0.0111477 0.0109319 0.0139578 0.0138848 0.0109319 0.0107268 0.0138848 0.0138397 0.0107268 0.0106138 0.0138397 0.0138291 0.0106138 0.0106096 0 -0.00116661 0 -0.00108086 -0.00116661 -0.00246546 -0.00108086 -0.0023591 -0.00246546 -0.00354378 -0.0023591 -0.00365912 -0.00354378 -0.0033918 -0.00365912 -0.00423028 -0.0033918 -0.00298761 -0.00423028 -0.00376751 -0.00298761 -0.0025306 -0.00376751 -0.00326737 -0.0025306 -0.00203019 -0.00326737 -0.00278269 -0.00203019 -0.00151179 -0.00278269 -0.00228026 -0.00151179 -0.000981974 -0.00228026 -0.00176595 -0.000981974 -0.000448015 -0.00176595 -0.00124915 -0.000448015 8.49972e-05 -0.00124915 -0.000734761 8.49972e-05 0.000614374 -0.000734761 -0.00022583 0.000614374 0.00113906 -0.00022583 0.000276368 0.00113906 0.00165925 0.000276368 0.000771937 0.00165925 0.00217608 0.000771937 0.00126193 0.00217608 0.00269129 0.00126193 0.00174807 0.00269129 0.00320704 0.00174807 0.0022325 0.00320704 0.0037256 0.0022325 0.00271761 0.0037256 0.00424912 0.00271761 0.00320583 0.00424912 0.0047793 0.00320583 0.00369936 0.0047793 0.0053171 0.00369936 0.00419982 0.0053171 0.0058624 0.00419982 0.00470786 0.0058624 0.00641372 0.00470786 0.00522274 0.00641372 0.0069681 0.00522274 0.00574201 0.0069681 0.00752111 0.00574201 0.00626146 0.00752111 0.0080671 0.00626146 0.00677537 0.0080671 0.0085997 0.00677537 0.00727703 0.0085997 0.00911242 0.00727703 0.00775956 0.00911242 0.00959924 0.00775956 0.00821666 0.00959924 0.0100552 0.00821666 0.00864325 0.0100552 0.0104765 0.00864325 0.00903587 0.0104765 0.0108611 0.00903587 0.00939273 0.0108611 0.0112082 0.00939273 0.0097135 0.0112082 0.0115182 0.0097135 0.00999903 0.0115182 0.0117923 0.00999903 0.0102509 0.0117923 0.0120322 0.0102509 0.010471 0.0120322 0.0122399 0.010471 0.0106611 0.0122399 0.0124172 0.0106611 0.0108228 0.0124172 0.0125655 0.0108228 0.010957 0.0125655 0.0126858 0.010957 0.011064 0.0126858 0.0127785 0.011064 0.0111433 0.0127785 0.0128436 0.0111433 0.0111934 0.0128436 0.0128808 0.0111934 0.0112128 0.0128808 0.01289 0.0112128 0.0111995 0.01289 0.0128712 0.0111995 0.0111523 0.0128712 0.0128252 0.0111523 0.0110708 0.0128252 0.0127531 0.0110708 0.0109552 0.0127531 0.0126557 0.0109552 0.0108048 0.0126557 0.0125335 0.0108048 0.0106182 0.0125335 0.0123862 0.0106182 0.0103926 0.0123862 0.0122136 0.0103926 0.0101227 0.0122136 0.0120167 0.0101227 0.00980752 0.0120167 0.011797 0.00980752 0.00945139 0.011797 0.0115656 0.00945139 0.00903794 0.0115656 0.0113491 0.00903794 0.00859893 0.0113491 0.0111477 0.00859893 0.00817964 0.0111477 0.0109319 0.00817964 0.00775092 0.0109319 0.0107268 0.00775092 0.00740375 0.0107268 0.0106138 0.00740375 0.00728536 0.0106138 0.0106096 0.00728536 0.00734717 0 -0.00108086 0 -0.00100449 -0.00108086 -0.0023591 -0.00100449 -0.00222694 -0.0023591 -0.00365912 -0.00222694 -0.00355421 -0.00365912 -0.00423028 -0.00355421 -0.00470611 -0.00423028 -0.00376751 -0.00470611 -0.00459583 -0.00376751 -0.00326737 -0.00459583 -0.00409919 -0.00326737 -0.00278269 -0.00409919 -0.0035948 -0.00278269 -0.00228026 -0.0035948 -0.00307525 -0.00228026 -0.00176595 -0.00307525 -0.00256058 -0.00176595 -0.00124915 -0.00256058 -0.00205096 -0.00124915 -0.000734761 -0.00205096 -0.00154951 -0.000734761 -0.00022583 -0.00154951 -0.00105836 -0.00022583 0.000276368 -0.00105836 -0.000578011 0.000276368 0.000771937 -0.000578011 -0.00010784 0.000771937 0.00126193 -0.00010784 0.000353597 0.00126193 0.00174807 0.000353597 0.000808345 0.00174807 0.0022325 0.000808345 0.00125892 0.0022325 0.00271761 0.00125892 0.0017082 0.00271761 0.00320583 0.0017082 0.00215934 0.00320583 0.00369936 0.00215934 0.00261549 0.00369936 0.00419982 0.00261549 0.00307942 0.00419982 0.00470786 0.00307942 0.00355298 0.00470786 0.00522274 0.00355298 0.00403641 0.00522274 0.00574201 0.00403641 0.00452781 0.00574201 0.00626146 0.00452781 0.00502287 0.00626146 0.00677537 0.00502287 0.00551508 0.00677537 0.00727703 0.00551508 0.00599654 0.00727703 0.00775956 0.00599654 0.00645902 0.00775956 0.00821666 0.00645902 0.00689517 0.00821666 0.00864325 0.00689517 0.00729936 0.00864325 0.00903587 0.00729936 0.00766813 0.00903587 0.00939273 0.00766813 0.00800015 0.00939273 0.0097135 0.00800015 0.00829588 0.0097135 0.00999903 0.00829588 0.00855701 0.00999903 0.0102509 0.00855701 0.00878589 0.0102509 0.010471 0.00878589 0.00898498 0.010471 0.0106611 0.00898498 0.00915641 0.0106611 0.0108228 0.00915641 0.00930165 0.0108228 0.010957 0.00930165 0.00942136 0.010957 0.011064 0.00942136 0.0095152 0.011064 0.0111433 0.0095152 0.00958173 0.0111433 0.0111934 0.00958173 0.00961838 0.0111934 0.0112128 0.00961838 0.00962163 0.0112128 0.0111995 0.00962163 0.00958774 0.0111995 0.0111523 0.00958774 0.00951399 0.0111523 0.0110708 0.00951399 0.00939879 0.0110708 0.0109552 0.00939879 0.00924198 0.0109552 0.0108048 0.00924198 0.00904309 0.0108048 0.0106182 0.00904309 0.00879654 0.0106182 0.0103926 0.00879654 0.00849725 0.0103926 0.0101227 0.00849725 0.00814409 0.0101227 0.00980752 0.00814409 0.00771484 0.00980752 0.00945139 0.00771484 0.00722582 0.00945139 0.00903794 0.00722582 0.00669748 0.00903794 0.00859893 0.00669748 0.00596569 0.00859893 0.00817964 0.00596569 0.0048505 0.00817964 0.00775092 0.0048505 0.00401568 0.00775092 0.00740375 0.00401568 0.00390702 0.00740375 0.00728536 0.00390702 0.00399698 0.00728536 0.00734717 0.00399698 0.00418286 0 -0.00100449 0 -0.000965478 -0.00100449 -0.00222694 -0.000965478 -0.0021556 -0.00222694 -0.00355421 -0.0021556 -0.00348284 -0.00355421 -0.00470611 -0.00348284 -0.00479572 -0.00470611 -0.00459583 -0.00479572 -0.00557174 -0.00459583 -0.00409919 -0.00557174 -0.00503245 -0.00409919 -0.0035948 -0.00503245 -0.00442653 -0.0035948 -0.00307525 -0.00442653 -0.00388402 -0.00307525 -0.00256058 -0.00388402 -0.00335937 -0.00256058 -0.00205096 -0.00335937 -0.00284945 -0.00205096 -0.00154951 -0.00284945 -0.00235674 -0.00154951 -0.00105836 -0.00235674 -0.00188106 -0.00105836 -0.000578011 -0.00188106 -0.00142162 -0.000578011 -0.00010784 -0.00142162 -0.000976881 -0.00010784 0.000353597 -0.000976881 -0.000544715 0.000353597 0.000808345 -0.000544715 -0.000122552 0.000808345 0.00125892 -0.000122552 0.000292642 0.00125892 0.0017082 0.000292642 0.000704433 0.0017082 0.00215934 0.000704433 0.00111692 0.00215934 0.00261549 0.00111692 0.00153456 0.00261549 0.00307942 0.00153456 0.00196177 0.00307942 0.00355298 0.00196177 0.0024021 0.00355298 0.00403641 0.0024021 0.00285729 0.00403641 0.00452781 0.00285729 0.00332619 0.00452781 0.00502287 0.00332619 0.00380422 0.00502287 0.00551508 0.00380422 0.00428349 0.00551508 0.00599654 0.00428349 0.00475394 0.00599654 0.00645902 0.00475394 0.00520508 0.00645902 0.00689517 0.00520508 0.00562773 0.00689517 0.00729936 0.00562773 0.00601534 0.00729936 0.00766813 0.00601534 0.00636439 0.00766813 0.00800015 0.00636439 0.00667427 0.00800015 0.00829588 0.00667427 0.00694654 0.00829588 0.00855701 0.00694654 0.00718413 0.00855701 0.00878589 0.00718413 0.00739057 0.00878589 0.00898498 0.00739057 0.00756915 0.00898498 0.00915641 0.00756915 0.00772251 0.00915641 0.00930165 0.00772251 0.00785223 0.00930165 0.00942136 0.00785223 0.00795875 0.00942136 0.0095152 0.00795875 0.00804126 0.0095152 0.00958173 0.00804126 0.00809765 0.00958173 0.00961838 0.00809765 0.0081242 0.00961838 0.00962163 0.0081242 0.00811571 0.00962163 0.00958774 0.00811571 0.00806598 0.00958774 0.00951399 0.00806598 0.00797018 0.00951399 0.00939879 0.00797018 0.00782763 0.00939879 0.00924198 0.00782763 0.00763593 0.00924198 0.00904309 0.00763593 0.00739518 0.00904309 0.00879654 0.00739518 0.00710671 0.00879654 0.00849725 0.00710671 0.00673872 0.00849725 0.00814409 0.00673872 0.00629844 0.00814409 0.00771484 0.00629844 0.00582052 0.00771484 0.00722582 0.00582052 0.00515841 0.00722582 0.00669748 0.00515841 0.00402875 0.00669748 0.00596569 0.00402875 0.00271856 0.00596569 0.0048505 0.00271856 0.00145195 0.0048505 0.00401568 0.00145195 0.000715636 0.00401568 0.00390702 0.000715636 0.000852316 0.00390702 0.00399698 0.000852316 0.00108763 0.00399698 0.00418286 0.00108763 0.0013615 0 -0.000965478 0 -0.000934794 -0.000965478 -0.0021556 -0.000934794 -0.00209372 -0.0021556 -0.00348284 -0.00209372 -0.00337351 -0.00348284 -0.00479572 -0.00337351 -0.00468821 -0.00479572 -0.00557174 -0.00468821 -0.00584758 -0.00557174 -0.00503245 -0.00584758 -0.00578707 -0.00503245 -0.00442653 -0.00578707 -0.00523745 -0.00442653 -0.00388402 -0.00523745 -0.00468853 -0.00388402 -0.00335937 -0.00468853 -0.00414852 -0.00335937 -0.00284945 -0.00414852 -0.00363724 -0.00284945 -0.00235674 -0.00363724 -0.00315161 -0.00235674 -0.00188106 -0.00315161 -0.00269018 -0.00188106 -0.00142162 -0.00269018 -0.00225092 -0.00142162 -0.000976881 -0.00225092 -0.00183122 -0.000976881 -0.000544715 -0.00183122 -0.00142827 -0.000544715 -0.000122552 -0.00142827 -0.001039 -0.000122552 0.000292642 -0.001039 -0.000659938 0.000292642 0.000704433 -0.000659938 -0.000286887 0.000704433 0.00111692 -0.000286887 8.52675e-05 0.00111692 0.00153456 8.52675e-05 0.000462536 0.00153456 0.00196177 0.000462536 0.000851414 0.00196177 0.0024021 0.000851414 0.00125792 0.0024021 0.00285729 0.00125792 0.00168605 0.00285729 0.00332619 0.00168605 0.00213604 0.00332619 0.00380422 0.00213604 0.00260306 0.00380422 0.00428349 0.00260306 0.0030772 0.00428349 0.00475394 0.0030772 0.00354508 0.00475394 0.00520508 0.00354508 0.00399273 0.00520508 0.00562773 0.00399273 0.00440837 0.00562773 0.00601534 0.00440837 0.00478421 0.00601534 0.00636439 0.00478421 0.00511692 0.00636439 0.00667427 0.00511692 0.00540696 0.00667427 0.00694654 0.00540696 0.00565746 0.00694654 0.00718413 0.00565746 0.00587302 0.00718413 0.00739057 0.00587302 0.00605864 0.00739057 0.00756915 0.00605864 0.00621871 0.00756915 0.00772251 0.00621871 0.00635643 0.00772251 0.00785223 0.00635643 0.00647339 0.00785223 0.00795875 0.00647339 0.00656971 0.00795875 0.00804126 0.00656971 0.00664415 0.00804126 0.00809765 0.00664415 0.00669411 0.00809765 0.0081242 0.00669411 0.00671531 0.0081242 0.00811571 0.00671531 0.00670114 0.00811571 0.00806598 0.00670114 0.00664353 0.00806598 0.00797018 0.00664353 0.00653342 0.00797018 0.00782763 0.00653342 0.00636922 0.00782763 0.00763593 0.00636922 0.00616324 0.00763593 0.00739518 0.00616324 0.00589074 0.00739518 0.00710671 0.00589074 0.0055588 0.00710671 0.00673872 0.0055588 0.00519194 0.00673872 0.00629844 0.00519194 0.00460166 0.00629844 0.00582052 0.00460166 0.00349768 0.00582052 0.00515841 0.00349768 0.00217337 0.00515841 0.00402875 0.00217337 0.000735927 0.00402875 0.00271856 0.000735927 -0.000612187 0.00271856 0.00145195 -0.000612187 -0.0015704 0.00145195 0.000715636 -0.0015704 -0.00161827 0.000715636 0.000852316 -0.00161827 -0.00142497 0.000852316 0.00108763 -0.00142497 -0.00123852 0.00108763 0.0013615 -0.00123852 -0.000964771 0 -0.000934794 0 -0.000902811 -0.000934794 -0.00209372 -0.000902811 -0.00204606 -0.00209372 -0.00337351 -0.00204606 -0.00326926 -0.00337351 -0.00468821 -0.00326926 -0.00456203 -0.00468821 -0.00584758 -0.00456203 -0.00582306 -0.00584758 -0.00578707 -0.00582306 -0.00658705 -0.00578707 -0.00523745 -0.00658705 -0.00607083 -0.00523745 -0.00468853 -0.00607083 -0.00546151 -0.00468853 -0.00414852 -0.00546151 -0.00491769 -0.00414852 -0.00363724 -0.00491769 -0.00440754 -0.00363724 -0.00315161 -0.00440754 -0.00392914 -0.00315161 -0.00269018 -0.00392914 -0.00348187 -0.00269018 -0.00225092 -0.00348187 -0.0030622 -0.00225092 -0.00183122 -0.0030622 -0.00266668 -0.00183122 -0.00142827 -0.00266668 -0.00229202 -0.00142827 -0.001039 -0.00229202 -0.00193502 -0.001039 -0.000659938 -0.00193502 -0.00159203 -0.000659938 -0.000286887 -0.00159203 -0.0012585 -0.000286887 8.52675e-05 -0.0012585 -0.000928486 8.52675e-05 0.000462536 -0.000928486 -0.000594392 0.000462536 0.000851414 -0.000594392 -0.000247205 0.000851414 0.00125792 -0.000247205 0.000122462 0.00125792 0.00168605 0.000122462 0.000522201 0.00168605 0.00213604 0.000522201 0.00095482 0.00213604 0.00260306 0.00095482 0.00141567 0.00260306 0.0030772 0.00141567 0.00189202 0.0030772 0.00354508 0.00189202 0.00236552 0.00354508 0.00399273 0.00236552 0.00281702 0.00399273 0.00440837 0.00281702 0.00323116 0.00440837 0.00478421 0.00323116 0.00359897 0.00478421 0.00511692 0.00359897 0.0039178 0.00511692 0.00540696 0.0039178 0.0041899 0.00540696 0.00565746 0.0041899 0.00442049 0.00565746 0.00587302 0.00442049 0.00461623 0.00587302 0.00605864 0.00461623 0.00478387 0.00605864 0.00621871 0.00478387 0.00492911 0.00621871 0.00635643 0.00492911 0.00505563 0.00635643 0.00647339 0.00505563 0.00516468 0.00647339 0.00656971 0.00516468 0.0052556 0.00656971 0.00664415 0.0052556 0.00532652 0.00664415 0.00669411 0.00532652 0.00537423 0.00669411 0.00671531 0.00537423 0.00539439 0.00671531 0.00670114 0.00539439 0.00538071 0.00670114 0.00664353 0.00538071 0.00532292 0.00664353 0.00653342 0.00532292 0.00521291 0.00653342 0.00636922 0.00521291 0.00503919 0.00636922 0.00616324 0.00503919 0.00481308 0.00616324 0.00589074 0.00481308 0.00459946 0.00589074 0.0055588 0.00459946 0.00419887 0.0055588 0.00519194 0.00419887 0.00318118 0.00519194 0.00460166 0.00318118 0.00186976 0.00460166 0.00349768 0.00186976 0.00039629 0.00349768 0.00217337 0.00039629 -0.00110089 0.00217337 0.000735927 -0.00110089 -0.0025182 0.000735927 -0.000612187 -0.0025182 -0.0035242 -0.000612187 -0.0015704 -0.0035242 -0.00349864 -0.0015704 -0.00161827 -0.00349864 -0.00329862 -0.00161827 -0.00142497 -0.00329862 -0.0031927 -0.00142497 -0.00123852 -0.0031927 -0.00306622 -0.00123852 -0.000964771 -0.00306622 -0.00283832 0 -0.000902811 0 -0.000796366 -0.000902811 -0.00204606 -0.000796366 -0.00189661 -0.00204606 -0.00326926 -0.00189661 -0.0030601 -0.00326926 -0.00456203 -0.0030601 -0.00431967 -0.00456203 -0.00582306 -0.00431967 -0.00561632 -0.00582306 -0.00658705 -0.00561632 -0.00676485 -0.00658705 -0.00607083 -0.00676485 -0.00672665 -0.00607083 -0.00546151 -0.00672665 -0.00619624 -0.00546151 -0.00491769 -0.00619624 -0.00566573 -0.00491769 -0.00440754 -0.00566573 -0.00515597 -0.00440754 -0.00392914 -0.00515597 -0.00468662 -0.00392914 -0.00348187 -0.00468662 -0.00425352 -0.00348187 -0.0030622 -0.00425352 -0.00385243 -0.0030622 -0.00266668 -0.00385243 -0.00347925 -0.00266668 -0.00229202 -0.00347925 -0.00313082 -0.00229202 -0.00193502 -0.00313082 -0.00280424 -0.00193502 -0.00159203 -0.00280424 -0.00249615 -0.00159203 -0.0012585 -0.00249615 -0.00220211 -0.0012585 -0.000928486 -0.00220211 -0.00191583 -0.000928486 -0.000594392 -0.00191583 -0.00162846 -0.000594392 -0.000247205 -0.00162846 -0.00132831 -0.000247205 0.000122462 -0.00132831 -0.0010016 0.000122462 0.000522201 -0.0010016 -0.000635141 0.000522201 0.00095482 -0.000635141 -0.000221235 0.00095482 0.00141567 -0.000221235 0.000236888 0.00141567 0.00189202 0.000236888 0.000722698 0.00189202 0.00236552 0.000722698 0.00121017 0.00236552 0.00281702 0.00121017 0.00167228 0.00281702 0.00323116 0.00167228 0.00208913 0.00323116 0.00359897 0.00208913 0.0024511 0.00359897 0.0039178 0.0024511 0.00275754 0.0039178 0.0041899 0.00275754 0.00301338 0.0041899 0.00442049 0.00301338 0.00322643 0.00442049 0.00461623 0.00322643 0.0034