# vtk DataFile Version 3.0
#This file was generated by the deal.II library on 2021/2/10 at 3:14:59
ASCII
DATASET UNSTRUCTURED_GRID

POINTS 14400 double
0 -0.5 0
0.0166667 -0.5 0
0 -0.483333 0
0.0166667 -0.483333 0
0.0166667 -0.5 0
0.0333333 -0.5 0
0.0166667 -0.483333 0
0.0333333 -0.483333 0
0.0333333 -0.5 0
0.05 -0.5 0
0.0333333 -0.483333 0
0.05 -0.483333 0
0.05 -0.5 0
0.0666667 -0.5 0
0.05 -0.483333 0
0.0666667 -0.483333 0
0.0666667 -0.5 0
0.0833333 -0.5 0
0.0666667 -0.483333 0
0.0833333 -0.483333 0
0.0833333 -0.5 0
0.1 -0.5 0
0.0833333 -0.483333 0
0.1 -0.483333 0
0.1 -0.5 0
0.116667 -0.5 0
0.1 -0.483333 0
0.116667 -0.483333 0
0.116667 -0.5 0
0.133333 -0.5 0
0.116667 -0.483333 0
0.133333 -0.483333 0
0.133333 -0.5 0
0.15 -0.5 0
0.133333 -0.483333 0
0.15 -0.483333 0
0.15 -0.5 0
0.166667 -0.5 0
0.15 -0.483333 0
0.166667 -0.483333 0
0.166667 -0.5 0
0.183333 -0.5 0
0.166667 -0.483333 0
0.183333 -0.483333 0
0.183333 -0.5 0
0.2 -0.5 0
0.183333 -0.483333 0
0.2 -0.483333 0
0.2 -0.5 0
0.216667 -0.5 0
0.2 -0.483333 0
0.216667 -0.483333 0
0.216667 -0.5 0
0.233333 -0.5 0
0.216667 -0.483333 0
0.233333 -0.483333 0
0.233333 -0.5 0
0.25 -0.5 0
0.233333 -0.483333 0
0.25 -0.483333 0
0.25 -0.5 0
0.266667 -0.5 0
0.25 -0.483333 0
0.266667 -0.483333 0
0.266667 -0.5 0
0.283333 -0.5 0
0.266667 -0.483333 0
0.283333 -0.483333 0
0.283333 -0.5 0
0.3 -0.5 0
0.283333 -0.483333 0
0.3 -0.483333 0
0.3 -0.5 0
0.316667 -0.5 0
0.3 -0.483333 0
0.316667 -0.483333 0
0.316667 -0.5 0
0.333333 -0.5 0
0.316667 -0.483333 0
0.333333 -0.483333 0
0.333333 -0.5 0
0.35 -0.5 0
0.333333 -0.483333 0
0.35 -0.483333 0
0.35 -0.5 0
0.366667 -0.5 0
0.35 -0.483333 0
0.366667 -0.483333 0
0.366667 -0.5 0
0.383333 -0.5 0
0.366667 -0.483333 0
0.383333 -0.483333 0
0.383333 -0.5 0
0.4 -0.5 0
0.383333 -0.483333 0
0.4 -0.483333 0
0.4 -0.5 0
0.416667 -0.5 0
0.4 -0.483333 0
0.416667 -0.483333 0
0.416667 -0.5 0
0.433333 -0.5 0
0.416667 -0.483333 0
0.433333 -0.483333 0
0.433333 -0.5 0
0.45 -0.5 0
0.433333 -0.483333 0
0.45 -0.483333 0
0.45 -0.5 0
0.466667 -0.5 0
0.45 -0.483333 0
0.466667 -0.483333 0
0.466667 -0.5 0
0.483333 -0.5 0
0.466667 -0.483333 0
0.483333 -0.483333 0
0.483333 -0.5 0
0.5 -0.5 0
0.483333 -0.483333 0
0.5 -0.483333 0
0.5 -0.5 0
0.516667 -0.5 0
0.5 -0.483333 0
0.516667 -0.483333 0
0.516667 -0.5 0
0.533333 -0.5 0
0.516667 -0.483333 0
0.533333 -0.483333 0
0.533333 -0.5 0
0.55 -0.5 0
0.533333 -0.483333 0
0.55 -0.483333 0
0.55 -0.5 0
0.566667 -0.5 0
0.55 -0.483333 0
0.566667 -0.483333 0
0.566667 -0.5 0
0.583333 -0.5 0
0.566667 -0.483333 0
0.583333 -0.483333 0
0.583333 -0.5 0
0.6 -0.5 0
0.583333 -0.483333 0
0.6 -0.483333 0
0.6 -0.5 0
0.616667 -0.5 0
0.6 -0.483333 0
0.616667 -0.483333 0
0.616667 -0.5 0
0.633333 -0.5 0
0.616667 -0.483333 0
0.633333 -0.483333 0
0.633333 -0.5 0
0.65 -0.5 0
0.633333 -0.483333 0
0.65 -0.483333 0
0.65 -0.5 0
0.666667 -0.5 0
0.65 -0.483333 0
0.666667 -0.483333 0
0.666667 -0.5 0
0.683333 -0.5 0
0.666667 -0.483333 0
0.683333 -0.483333 0
0.683333 -0.5 0
0.7 -0.5 0
0.683333 -0.483333 0
0.7 -0.483333 0
0.7 -0.5 0
0.716667 -0.5 0
0.7 -0.483333 0
0.716667 -0.483333 0
0.716667 -0.5 0
0.733333 -0.5 0
0.716667 -0.483333 0
0.733333 -0.483333 0
0.733333 -0.5 0
0.75 -0.5 0
0.733333 -0.483333 0
0.75 -0.483333 0
0.75 -0.5 0
0.766667 -0.5 0
0.75 -0.483333 0
0.766667 -0.483333 0
0.766667 -0.5 0
0.783333 -0.5 0
0.766667 -0.483333 0
0.783333 -0.483333 0
0.783333 -0.5 0
0.8 -0.5 0
0.783333 -0.483333 0
0.8 -0.483333 0
0.8 -0.5 0
0.816667 -0.5 0
0.8 -0.483333 0
0.816667 -0.483333 0
0.816667 -0.5 0
0.833333 -0.5 0
0.816667 -0.483333 0
0.833333 -0.483333 0
0.833333 -0.5 0
0.85 -0.5 0
0.833333 -0.483333 0
0.85 -0.483333 0
0.85 -0.5 0
0.866667 -0.5 0
0.85 -0.483333 0
0.866667 -0.483333 0
0.866667 -0.5 0
0.883333 -0.5 0
0.866667 -0.483333 0
0.883333 -0.483333 0
0.883333 -0.5 0
0.9 -0.5 0
0.883333 -0.483333 0
0.9 -0.483333 0
0.9 -0.5 0
0.916667 -0.5 0
0.9 -0.483333 0
0.916667 -0.483333 0
0.916667 -0.5 0
0.933333 -0.5 0
0.916667 -0.483333 0
0.933333 -0.483333 0
0.933333 -0.5 0
0.95 -0.5 0
0.933333 -0.483333 0
0.95 -0.483333 0
0.95 -0.5 0
0.966667 -0.5 0
0.95 -0.483333 0
0.966667 -0.483333 0
0.966667 -0.5 0
0.983333 -0.5 0
0.966667 -0.483333 0
0.983333 -0.483333 0
0.983333 -0.5 0
1 -0.5 0
0.983333 -0.483333 0
1 -0.483333 0
0 -0.483333 0
0.0166667 -0.483333 0
0 -0.466667 0
0.0166667 -0.466667 0
0.0166667 -0.483333 0
0.0333333 -0.483333 0
0.0166667 -0.466667 0
0.0333333 -0.466667 0
0.0333333 -0.483333 0
0.05 -0.483333 0
0.0333333 -0.466667 0
0.05 -0.466667 0
0.05 -0.483333 0
0.0666667 -0.483333 0
0.05 -0.466667 0
0.0666667 -0.466667 0
0.0666667 -0.483333 0
0.0833333 -0.483333 0
0.0666667 -0.466667 0
0.0833333 -0.466667 0
0.0833333 -0.483333 0
0.1 -0.483333 0
0.0833333 -0.466667 0
0.1 -0.466667 0
0.1 -0.483333 0
0.116667 -0.483333 0
0.1 -0.466667 0
0.116667 -0.466667 0
0.116667 -0.483333 0
0.133333 -0.483333 0
0.116667 -0.466667 0
0.133333 -0.466667 0
0.133333 -0.483333 0
0.15 -0.483333 0
0.133333 -0.466667 0
0.15 -0.466667 0
0.15 -0.483333 0
0.166667 -0.483333 0
0.15 -0.466667 0
0.166667 -0.466667 0
0.166667 -0.483333 0
0.183333 -0.483333 0
0.166667 -0.466667 0
0.183333 -0.466667 0
0.183333 -0.483333 0
0.2 -0.483333 0
0.183333 -0.466667 0
0.2 -0.466667 0
0.2 -0.483333 0
0.216667 -0.483333 0
0.2 -0.466667 0
0.216667 -0.466667 0
0.216667 -0.483333 0
0.233333 -0.483333 0
0.216667 -0.466667 0
0.233333 -0.466667 0
0.233333 -0.483333 0
0.25 -0.483333 0
0.233333 -0.466667 0
0.25 -0.466667 0
0.25 -0.483333 0
0.266667 -0.483333 0
0.25 -0.466667 0
0.266667 -0.466667 0
0.266667 -0.483333 0
0.283333 -0.483333 0
0.266667 -0.466667 0
0.283333 -0.466667 0
0.283333 -0.483333 0
0.3 -0.483333 0
0.283333 -0.466667 0
0.3 -0.466667 0
0.3 -0.483333 0
0.316667 -0.483333 0
0.3 -0.466667 0
0.316667 -0.466667 0
0.316667 -0.483333 0
0.333333 -0.483333 0
0.316667 -0.466667 0
0.333333 -0.466667 0
0.333333 -0.483333 0
0.35 -0.483333 0
0.333333 -0.466667 0
0.35 -0.466667 0
0.35 -0.483333 0
0.366667 -0.483333 0
0.35 -0.466667 0
0.366667 -0.466667 0
0.366667 -0.483333 0
0.383333 -0.483333 0
0.366667 -0.466667 0
0.383333 -0.466667 0
0.383333 -0.483333 0
0.4 -0.483333 0
0.383333 -0.466667 0
0.4 -0.466667 0
0.4 -0.483333 0
0.416667 -0.483333 0
0.4 -0.466667 0
0.416667 -0.466667 0
0.416667 -0.483333 0
0.433333 -0.483333 0
0.416667 -0.466667 0
0.433333 -0.466667 0
0.433333 -0.483333 0
0.45 -0.483333 0
0.433333 -0.466667 0
0.45 -0.466667 0
0.45 -0.483333 0
0.466667 -0.483333 0
0.45 -0.466667 0
0.466667 -0.466667 0
0.466667 -0.483333 0
0.483333 -0.483333 0
0.466667 -0.466667 0
0.483333 -0.466667 0
0.483333 -0.483333 0
0.5 -0.483333 0
0.483333 -0.466667 0
0.5 -0.466667 0
0.5 -0.483333 0
0.516667 -0.483333 0
0.5 -0.466667 0
0.516667 -0.466667 0
0.516667 -0.483333 0
0.533333 -0.483333 0
0.516667 -0.466667 0
0.533333 -0.466667 0
0.533333 -0.483333 0
0.55 -0.483333 0
0.533333 -0.466667 0
0.55 -0.466667 0
0.55 -0.483333 0
0.566667 -0.483333 0
0.55 -0.466667 0
0.566667 -0.466667 0
0.566667 -0.483333 0
0.583333 -0.483333 0
0.566667 -0.466667 0
0.583333 -0.466667 0
0.583333 -0.483333 0
0.6 -0.483333 0
0.583333 -0.466667 0
0.6 -0.466667 0
0.6 -0.483333 0
0.616667 -0.483333 0
0.6 -0.466667 0
0.616667 -0.466667 0
0.616667 -0.483333 0
0.633333 -0.483333 0
0.616667 -0.466667 0
0.633333 -0.466667 0
0.633333 -0.483333 0
0.65 -0.483333 0
0.633333 -0.466667 0
0.65 -0.466667 0
0.65 -0.483333 0
0.666667 -0.483333 0
0.65 -0.466667 0
0.666667 -0.466667 0
0.666667 -0.483333 0
0.683333 -0.483333 0
0.666667 -0.466667 0
0.683333 -0.466667 0
0.683333 -0.483333 0
0.7 -0.483333 0
0.683333 -0.466667 0
0.7 -0.466667 0
0.7 -0.483333 0
0.716667 -0.483333 0
0.7 -0.466667 0
0.716667 -0.466667 0
0.716667 -0.483333 0
0.733333 -0.483333 0
0.716667 -0.466667 0
0.733333 -0.466667 0
0.733333 -0.483333 0
0.75 -0.483333 0
0.733333 -0.466667 0
0.75 -0.466667 0
0.75 -0.483333 0
0.766667 -0.483333 0
0.75 -0.466667 0
0.766667 -0.466667 0
0.766667 -0.483333 0
0.783333 -0.483333 0
0.766667 -0.466667 0
0.783333 -0.466667 0
0.783333 -0.483333 0
0.8 -0.483333 0
0.783333 -0.466667 0
0.8 -0.466667 0
0.8 -0.483333 0
0.816667 -0.483333 0
0.8 -0.466667 0
0.816667 -0.466667 0
0.816667 -0.483333 0
0.833333 -0.483333 0
0.816667 -0.466667 0
0.833333 -0.466667 0
0.833333 -0.483333 0
0.85 -0.483333 0
0.833333 -0.466667 0
0.85 -0.466667 0
0.85 -0.483333 0
0.866667 -0.483333 0
0.85 -0.466667 0
0.866667 -0.466667 0
0.866667 -0.483333 0
0.883333 -0.483333 0
0.866667 -0.466667 0
0.883333 -0.466667 0
0.883333 -0.483333 0
0.9 -0.483333 0
0.883333 -0.466667 0
0.9 -0.466667 0
0.9 -0.483333 0
0.916667 -0.483333 0
0.9 -0.466667 0
0.916667 -0.466667 0
0.916667 -0.483333 0
0.933333 -0.483333 0
0.916667 -0.466667 0
0.933333 -0.466667 0
0.933333 -0.483333 0
0.95 -0.483333 0
0.933333 -0.466667 0
0.95 -0.466667 0
0.95 -0.483333 0
0.966667 -0.483333 0
0.95 -0.466667 0
0.966667 -0.466667 0
0.966667 -0.483333 0
0.983333 -0.483333 0
0.966667 -0.466667 0
0.983333 -0.466667 0
0.983333 -0.483333 0
1 -0.483333 0
0.983333 -0.466667 0
1 -0.466667 0
0 -0.466667 0
0.0166667 -0.466667 0
0 -0.45 0
0.0166667 -0.45 0
0.0166667 -0.466667 0
0.0333333 -0.466667 0
0.0166667 -0.45 0
0.0333333 -0.45 0
0.0333333 -0.466667 0
0.05 -0.466667 0
0.0333333 -0.45 0
0.05 -0.45 0
0.05 -0.466667 0
0.0666667 -0.466667 0
0.05 -0.45 0
0.0666667 -0.45 0
0.0666667 -0.466667 0
0.0833333 -0.466667 0
0.0666667 -0.45 0
0.0833333 -0.45 0
0.0833333 -0.466667 0
0.1 -0.466667 0
0.0833333 -0.45 0
0.1 -0.45 0
0.1 -0.466667 0
0.116667 -0.466667 0
0.1 -0.45 0
0.116667 -0.45 0
0.116667 -0.466667 0
0.133333 -0.466667 0
0.116667 -0.45 0
0.133333 -0.45 0
0.133333 -0.466667 0
0.15 -0.466667 0
0.133333 -0.45 0
0.15 -0.45 0
0.15 -0.466667 0
0.166667 -0.466667 0
0.15 -0.45 0
0.166667 -0.45 0
0.166667 -0.466667 0
0.183333 -0.466667 0
0.166667 -0.45 0
0.183333 -0.45 0
0.183333 -0.466667 0
0.2 -0.466667 0
0.183333 -0.45 0
0.2 -0.45 0
0.2 -0.466667 0
0.216667 -0.466667 0
0.2 -0.45 0
0.216667 -0.45 0
0.216667 -0.466667 0
0.233333 -0.466667 0
0.216667 -0.45 0
0.233333 -0.45 0
0.233333 -0.466667 0
0.25 -0.466667 0
0.233333 -0.45 0
0.25 -0.45 0
[...]
POINT_DATA 14400
SCALARS x1_displacement double 1
LOOKUP_TABLE default
0 -0.000672178 0 -0.000263089 -0.000672178 -0.00107904 -0.000263089 -0.00055514 -0.00107904 -0.00131403 -0.00055514 -0.000762072 -0.00131403 -0.00143637 -0.000762072 -0.00088658 -0.00143637 -0.00146912 -0.00088658 -0.000938237 -0.00146912 -0.00142753 -0.000938237 -0.000926127 -0.00142753 -0.00132212 -0.000926127 -0.000857765 -0.00132212 -0.00116097 -0.000857765 -0.000739352 -0.00116097 -0.000950531 -0.000739352 -0.000576097 -0.000950531 -0.000696166 -0.000576097 -0.000372457 -0.000696166 -0.000402399 -0.000372457 -0.0001323 -0.000402399 -7.31241e-05 -0.0001323 0.000140979 -7.31241e-05 0.000288269 0.000140979 0.000444378 0.000288269 0.000678809 0.000444378 0.000775223 0.000678809 0.00109587 0.000775223 0.00113112 0.00109587 0.00153715 0.00113112 0.00150993 0.00153715 0.00200056 0.00150993 0.00190972 0.00200056 0.00248427 0.00190972 0.00232874 0.00248427 0.00298663 0.00232874 0.00276538 0.00298663 0.00350612 0.00276538 0.00321819 0.00350612 0.00404139 0.00321819 0.0036858 0.00404139 0.00459113 0.0036858 0.00416693 0.00459113 0.00515411 0.00416693 0.00466034 0.00515411 0.00572912 0.00466034 0.00516479 0.00572912 0.00631494 0.00516479 0.00567907 0.00631494 0.00691028 0.00567907 0.0062019 0.00691028 0.00751378 0.0062019 0.00673192 0.00751378 0.00812394 0.00673192 0.0072677 0.00812394 0.0087391 0.0072677 0.00780768 0.0087391 0.00935742 0.00780768 0.00835012 0.00935742 0.00997685 0.00835012 0.00889316 0.00997685 0.0105951 0.00889316 0.00943473 0.0105951 0.0112096 0.00943473 0.00997259 0.0112096 0.0118177 0.00997259 0.0105044 0.0118177 0.0124163 0.0105044 0.0110275 0.0124163 0.0130025 0.0110275 0.0115393 0.0130025 0.013573 0.0115393 0.0120371 0.013573 0.0141248 0.0120371 0.0125182 0.0141248 0.0146548 0.0125182 0.01298 0.0146548 0.0151603 0.01298 0.0134202 0.0151603 0.0156393 0.0134202 0.0138368 0.0156393 0.0160903 0.0138368 0.0142282 0.0160903 0.0165127 0.0142282 0.0145932 0.0165127 0.0169067 0.0145932 0.0149316 0.0169067 0.0172734 0.0149316 0.0152432 0.0172734 0.0176145 0.0152432 0.0155285 0.0176145 0.0179315 0.0155285 0.0157877 0.0179315 0.0182259 0.0157877 0.0160207 0.0182259 0.0184993 0.0160207 0.016227 0.0184993 0.018754 0.016227 0.0164058 0.018754 0.0189936 0.0164058 0.0165569 0.0189936 0.0192213 0.0165569 0.0166795 0.0192213 0.0194373 0.0166795 0.0167729 0.0194373 0.0196279 0.0167729 0.0168389 0.0196279 0.0197619 0.0168389 0.0168671 0.0197619 0.0198093 0.0168671 0.016844 0.0198093 0.0197799 0.016844 0.016783 0.0197799 0.019725 0.016783 0.0167235 0.019725 0.0196919 0.0167235 0.016695 0.0196919 0.0196854 0.016695 0.0166945 0 -0.000263089 0 -0.000152635 -0.000263089 -0.00055514 -0.000152635 -0.000297569 -0.00055514 -0.000762072 -0.000297569 -0.000431268 -0.000762072 -0.00088658 -0.000431268 -0.000523701 -0.00088658 -0.000938237 -0.000523701 -0.000568645 -0.000938237 -0.000926127 -0.000568645 -0.000566227 -0.000926127 -0.000857765 -0.000566227 -0.000518972 -0.000857765 -0.000739352 -0.000518972 -0.000430055 -0.000739352 -0.000576097 -0.000430055 -0.000302719 -0.000576097 -0.000372457 -0.000302719 -0.000140067 -0.000372457 -0.0001323 -0.000140067 5.50024e-05 -0.0001323 0.000140979 5.50024e-05 0.000279816 0.000140979 0.000444378 0.000279816 0.000531915 0.000444378 0.000775223 0.000531915 0.000809048 0.000775223 0.00113112 0.000809048 0.00110915 0.00113112 0.00150993 0.00110915 0.00143034 0.00150993 0.00190972 0.00143034 0.00177088 0.00190972 0.00232874 0.00177088 0.00212918 0.00232874 0.00276538 0.00212918 0.00250378 0.00276538 0.00321819 0.00250378 0.00289332 0.00321819 0.0036858 0.00289332 0.00329651 0.0036858 0.00416693 0.00329651 0.00371213 0.00416693 0.00466034 0.00371213 0.00413902 0.00466034 0.00516479 0.00413902 0.00457601 0.00516479 0.00567907 0.00457601 0.00502195 0.00567907 0.0062019 0.00502195 0.00547562 0.0062019 0.00673192 0.00547562 0.00593579 0.00673192 0.0072677 0.00593579 0.00640112 0.0072677 0.00780768 0.00640112 0.00687019 0.00780768 0.00835012 0.00687019 0.00734146 0.00835012 0.00889316 0.00734146 0.00781324 0.00889316 0.00943473 0.00781324 0.00828371 0.00943473 0.00997259 0.00828371 0.00875089 0.00997259 0.0105044 0.00875089 0.00921267 0.0105044 0.0110275 0.00921267 0.0096668 0.0110275 0.0115393 0.0096668 0.0101109 0.0115393 0.0120371 0.0101109 0.0105426 0.0120371 0.0125182 0.0105426 0.0109594 0.0125182 0.01298 0.0109594 0.0113589 0.01298 0.0134202 0.0113589 0.0117387 0.0134202 0.0138368 0.0117387 0.0120967 0.0138368 0.0142282 0.0120967 0.012431 0.0142282 0.0145932 0.012431 0.01274 0.0145932 0.0149316 0.01274 0.0130227 0.0149316 0.0152432 0.0130227 0.0132786 0.0152432 0.0155285 0.0132786 0.0135074 0.0155285 0.0157877 0.0135074 0.013709 0.0157877 0.0160207 0.013709 0.0138816 0.0160207 0.016227 0.0138816 0.014022 0.016227 0.0164058 0.014022 0.0141265 0.0164058 0.0165569 0.0141265 0.0141922 0.0165569 0.0166795 0.0141922 0.0142186 0.0166795 0.0167729 0.0142186 0.0142021 0.0167729 0.0168389 0.0142021 0.0141474 0.0168389 0.0168671 0.0141474 0.0140675 0.0168671 0.016844 0.0140675 0.0139326 0.016844 0.016783 0.0139326 0.0137769 0.016783 0.0167235 0.0137769 0.0136859 0.0167235 0.016695 0.0136859 0.0136644 0.016695 0.0166945 0.0136644 0.0136847 0 -0.000152635 0 -9.5422e-05 -0.000152635 -0.000297569 -9.5422e-05 -0.000176142 -0.000297569 -0.000431268 -0.000176142 -0.000247542 -0.000431268 -0.000523701 -0.000247542 -0.00030215 -0.000523701 -0.000568645 -0.00030215 -0.000329725 -0.000568645 -0.000566227 -0.000329725 -0.000325846 -0.000566227 -0.000518972 -0.000325846 -0.0002892 -0.000518972 -0.000430055 -0.0002892 -0.000220204 -0.000430055 -0.000302719 -0.000220204 -0.000120126 -0.000302719 -0.000140067 -0.000120126 9.36372e-06 -0.000140067 5.50024e-05 9.36372e-06 0.00016643 5.50024e-05 0.000279816 0.00016643 0.0003492 0.000279816 0.000531915 0.0003492 0.000555837 0.000531915 0.000809048 0.000555837 0.000784572 0.000809048 0.00110915 0.000784572 0.00103373 0.00110915 0.00143034 0.00103373 0.00130173 0.00143034 0.00177088 0.00130173 0.00158711 0.00177088 0.00212918 0.00158711 0.00188847 0.00212918 0.00250378 0.00188847 0.00220454 0.00250378 0.00289332 0.00220454 0.0025341 0.00289332 0.00329651 0.0025341 0.00287601 0.00329651 0.00371213 0.00287601 0.00322919 0.00371213 0.00413902 0.00322919 0.00359258 0.00413902 0.00457601 0.00359258 0.00396514 0.00457601 0.00502195 0.00396514 0.00434583 0.00502195 0.00547562 0.00434583 0.00473359 0.00547562 0.00593579 0.00473359 0.00512732 0.00593579 0.00640112 0.00512732 0.00552587 0.00640112 0.00687019 0.00552587 0.00592798 0.00687019 0.00734146 0.00592798 0.00633231 0.00734146 0.00781324 0.00633231 0.00673739 0.00781324 0.00828371 0.00673739 0.00714165 0.00828371 0.00875089 0.00714165 0.00754333 0.00875089 0.00921267 0.00754333 0.00794056 0.00921267 0.0096668 0.00794056 0.00833133 0.0096668 0.0101109 0.00833133 0.00871347 0.0101109 0.0105426 0.00871347 0.00908472 0.0105426 0.0109594 0.00908472 0.00944273 0.0109594 0.0113589 0.00944273 0.00978506 0.0113589 0.0117387 0.00978506 0.0101093 0.0117387 0.0120967 0.0101093 0.0104129 0.0120967 0.012431 0.0104129 0.0106938 0.012431 0.01274 0.0106938 0.0109497 0.01274 0.0130227 0.0109497 0.0111791 0.0130227 0.0132786 0.0111791 0.0113812 0.0132786 0.0135074 0.0113812 0.0115557 0.0135074 0.013709 0.0115557 0.0117028 0.013709 0.0138816 0.0117028 0.0118205 0.0138816 0.014022 0.0118205 0.0119034 0.014022 0.0141265 0.0119034 0.0119432 0.0141265 0.0141922 0.0119432 0.0119361 0.0141922 0.0142186 0.0119361 0.0118795 0.0142186 0.0142021 0.0118795 0.0117738 0.0142021 0.0141474 0.0117738 0.0115964 0.0141474 0.0140675 0.0115964 0.011232 0.0140675 0.0139326 0.011232 0.010858 0.0139326 0.0137769 0.010858 0.0106885 0.0137769 0.0136859 0.0106885 0.0106376 0.0136859 0.0136644 0.0106376 0.0106471 0.0136644 0.0136847 0.0106471 0.010698 0 -9.5422e-05 0 -6.74889e-05 -9.5422e-05 -0.000176142 -6.74889e-05 -0.000114741 -0.000176142 -0.000247542 -0.000114741 -0.000151834 -0.000247542 -0.00030215 -0.000151834 -0.000178306 -0.00030215 -0.000329725 -0.000178306 -0.000189595 -0.000329725 -0.000325846 -0.000189595 -0.00018108 -0.000325846 -0.0002892 -0.00018108 -0.00015004 -0.0002892 -0.000220204 -0.00015004 -9.52677e-05 -0.000220204 -0.000120126 -9.52677e-05 -1.66034e-05 -0.000120126 9.36372e-06 -1.66034e-05 8.54511e-05 9.36372e-06 0.00016643 8.54511e-05 0.000209997 0.00016643 0.0003492 0.000209997 0.000355909 0.0003492 0.000555837 0.000355909 0.00052195 0.000555837 0.000784572 0.00052195 0.000706836 0.000784572 0.00103373 0.000706836 0.000909291 0.00103373 0.00130173 0.000909291 0.00112807 0.00130173 0.00158711 0.00112807 0.00136197 0.00158711 0.00188847 0.00136197 0.00160986 0.00188847 0.00220454 0.00160986 0.00187066 0.00220454 0.0025341 0.00187066 0.00214336 0.0025341 0.00287601 0.00214336 0.00242699 0.00287601 0.00322919 0.00242699 0.00272063 0.00322919 0.00359258 0.00272063 0.00302338 0.00359258 0.00396514 0.00302338 0.00333439 0.00396514 0.00434583 0.00333439 0.00365277 0.00434583 0.00473359 0.00365277 0.00397765 0.00473359 0.00512732 0.00397765 0.00430811 0.00512732 0.00552587 0.00430811 0.00464319 0.00552587 0.00592798 0.00464319 0.00498187 0.00592798 0.00633231 0.00498187 0.00532302 0.00633231 0.00673739 0.00532302 0.00566541 0.00673739 0.00714165 0.00566541 0.00600768 0.00714165 0.00754333 0.00600768 0.00634832 0.00754333 0.00794056 0.00634832 0.00668567 0.00794056 0.00833133 0.00668567 0.0070179 0.00833133 0.00871347 0.0070179 0.00734299 0.00871347 0.00908472 0.00734299 0.00765879 0.00908472 0.00944273 0.00765879 0.00796296 0.00944273 0.00978506 0.00796296 0.00825304 0.00978506 0.0101093 0.00825304 0.00852643 0.0101093 0.0104129 0.00852643 0.00878046 0.0104129 0.0106938 0.00878046 0.00901244 0.0106938 0.0109497 0.00901244 0.00921979 0.0109497 0.0111791 0.00921979 0.00940032 0.0111791 0.0113812 0.00940032 0.00955264 0.0113812 0.0115557 0.00955264 0.00967674 0.0115557 0.0117028 0.00967674 0.00977427 0.0117028 0.0118205 0.00977427 0.00984544 0.0118205 0.0119034 0.00984544 0.00988473 0.0119034 0.0119432 0.00988473 0.00987842 0.0119432 0.0119361 0.00987842 0.0098168 0.0119361 0.0118795 0.0098168 0.00970865 0.0118795 0.0117738 0.00970865 0.00947775 0.0117738 0.0115964 0.00947775 0.00894284 0.0115964 0.011232 0.00894284 0.00808328 0.011232 0.010858 0.00808328 0.00765834 0.010858 0.0106885 0.00765834 0.00762797 0.0106885 0.0106376 0.00762797 0.00766488 0.0106376 0.0106471 0.00766488 0.0077157 0.0106471 0.010698 0.0077157 0.00779684 0 -6.74889e-05 0 -5.47099e-05 -6.74889e-05 -0.000114741 -5.47099e-05 -8.7553e-05 -0.000114741 -0.000151834 -8.7553e-05 -0.000108069 -0.000151834 -0.000178306 -0.000108069 -0.00011956 -0.000178306 -0.000189595 -0.00011956 -0.00012099 -0.000189595 -0.00018108 -0.00012099 -0.000109799 -0.00018108 -0.00015004 -0.000109799 -8.35433e-05 -0.00015004 -9.52677e-05 -8.35433e-05 -4.05732e-05 -9.52677e-05 -1.66034e-05 -4.05732e-05 1.99761e-05 -1.66034e-05 8.54511e-05 1.99761e-05 9.83368e-05 8.54511e-05 0.000209997 9.83368e-05 0.000194285 0.000209997 0.000355909 0.000194285 0.000307285 0.000355909 0.00052195 0.000307285 0.000436605 0.00052195 0.000706836 0.000436605 0.000581392 0.000706836 0.000909291 0.000581392 0.000740738 0.000909291 0.00112807 0.000740738 0.000913716 0.00112807 0.00136197 0.000913716 0.00109941 0.00136197 0.00160986 0.00109941 0.00129694 0.00160986 0.00187066 0.00129694 0.00150544 0.00187066 0.00214336 0.00150544 0.00172413 0.00214336 0.00242699 0.00172413 0.00195223 0.00242699 0.00272063 0.00195223 0.00218902 0.00272063 0.00302338 0.00218902 0.00243381 0.00302338 0.00333439 0.00243381 0.00268592 0.00333439 0.00365277 0.00268592 0.00294468 0.00365277 0.00397765 0.00294468 0.00320942 0.00397765 0.00430811 0.00320942 0.00347945 0.00430811 0.00464319 0.00347945 0.00375404 0.00464319 0.00498187 0.00375404 0.00403238 0.00498187 0.00532302 0.00403238 0.0043136 0.00532302 0.00566541 0.0043136 0.00459673 0.00566541 0.00600768 0.00459673 0.00488063 0.00600768 0.00634832 0.00488063 0.00516403 0.00634832 0.00668567 0.00516403 0.00544546 0.00668567 0.0070179 0.00544546 0.00572326 0.0070179 0.00734299 0.00572326 0.00599555 0.00734299 0.00765879 0.00599555 0.00626024 0.00765879 0.00796296 0.00626024 0.00651504 0.00796296 0.00825304 0.00651504 0.00675745 0.00825304 0.00852643 0.00675745 0.00698477 0.00852643 0.00878046 0.00698477 0.00719415 0.00878046 0.00901244 0.00719415 0.00738261 0.00901244 0.00921979 0.00738261 0.00754718 0.00921979 0.00940032 0.00754718 0.00768511 0.00940032 0.00955264 0.00768511 0.00779426 0.00955264 0.00967674 0.00779426 0.00787394 0.00967674 0.00977427 0.00787394 0.00792652 0.00977427 0.00984544 0.00792652 0.00795875 0.00984544 0.00988473 0.00795875 0.00796643 0.00988473 0.00987842 0.00796643 0.00793594 0.00987842 0.0098168 0.00793594 0.00784902 0.0098168 0.00970865 0.00784902 0.00753158 0.00970865 0.00947775 0.00753158 0.00676378 0.00947775 0.00894284 0.00676378 0.00567776 0.00894284 0.00808328 0.00567776 0.00490339 0.00808328 0.00765834 0.00490339 0.00476624 0.00765834 0.00762797 0.00476624 0.00481554 0.00762797 0.00766488 0.00481554 0.00487527 0.00766488 0.0077157 0.00487527 0.00494195 0.0077157 0.00779684 0.00494195 0.00503851 0 -5.47099e-05 0 -5.15452e-05 -5.47099e-05 -8.7553e-05 -5.15452e-05 -8.12016e-05 -8.7553e-05 -0.000108069 -8.12016e-05 -9.72814e-05 -0.000108069 -0.00011956 -9.72814e-05 -0.000104246 -0.00011956 -0.00012099 -0.000104246 -0.000103271 -0.00012099 -0.000109799 -0.000103271 -9.35921e-05 -0.000109799 -8.35433e-05 -9.35921e-05 -7.37801e-05 -8.35433e-05 -4.05732e-05 -7.37801e-05 -4.2478e-05 -4.05732e-05 1.99761e-05 -4.2478e-05 1.28541e-06 1.99761e-05 9.83368e-05 1.28541e-06 5.80455e-05 9.83368e-05 0.000194285 5.80455e-05 0.000127954 0.000194285 0.000307285 0.000127954 0.000210862 0.000307285 0.000436605 0.000210862 0.000306404 0.000436605 0.000581392 0.000306404 0.00041407 0.000581392 0.000740738 0.00041407 0.000533259 0.000740738 0.000913716 0.000533259 0.000663328 0.000913716 0.00109941 0.000663328 0.000803624 0.00109941 0.00129694 0.000803624 0.000953502 0.00129694 0.00150544 0.000953502 0.00111234 0.00150544 0.00172413 0.00111234 0.00127957 0.00172413 0.00195223 0.00127957 0.00145462 0.00195223 0.00218902 0.00145462 0.001637 0.00218902 0.00243381 0.001637 0.00182622 0.00243381 0.00268592 0.00182622 0.00202183 0.00268592 0.00294468 0.00202183 0.00222337 0.00294468 0.00320942 0.00222337 0.00243042 0.00320942 0.00347945 0.00243042 0.0026425 0.00347945 0.00375404 0.0026425 0.00285914 0.00375404 0.00403238 0.00285914 0.0030798 0.00403238 0.0043136 0.0030798 0.00330386 0.0043136 0.00459673 0.00330386 0.00353059 0.00459673 0.00488063 0.00353059 0.00375914 0.00488063 0.00516403 0.00375914 0.00398845 0.00516403 0.00544546 0.00398845 0.00421727 0.00544546 0.00572326 0.00421727 0.00444409 0.00572326 0.00599555 0.00444409 0.00466716 0.00599555 0.00626024 0.00466716 0.00488449 0.00626024 0.00651504 0.00488449 0.00509382 0.00651504 0.00675745 0.00509382 0.00529269 0.00675745 0.00698477 0.00529269 0.00547841 0.00698477 0.00719415 0.00547841 0.00564809 0.00719415 0.00738261 0.00564809 0.00579868 0.00738261 0.00754718 0.00579868 0.00592708 0.00754718 0.00768511 0.00592708 0.00603036 0.00768511 0.00779426 0.00603036 0.00610593 0.00779426 0.00787394 0.00610593 0.00615197 0.00787394 0.00792652 0.00615197 0.00616869 0.00792652 0.00795875 0.00616869 0.00616168 0.00795875 0.00796643 0.00616168 0.0061421 0.00796643 0.00793594 0.0061421 0.00604159 0.00793594 0.00784902 0.00604159 0.0056375 0.00784902 0.00753158 0.0056375 0.00466071 0.00753158 0.00676378 0.00466071 0.00334494 0.00676378 0.00567776 0.00334494 0.00244172 0.00567776 0.00490339 0.00244172 0.00223968 0.00490339 0.00476624 0.00223968 0.00225759 0.00476624 0.00481554 0.00225759 0.00227162 0.00481554 0.00487527 0.00227162 0.00230155 0.00487527 0.00494195 0.00230155 0.00235569 0.00494195 0.00503851 0.00235569 0.00244911 0 -5.15452e-05 0 -5.48313e-05 -5.15452e-05 -8.12016e-05 -5.48313e-05 -8.86354e-05 -8.12016e-05 -9.72814e-05 -8.86354e-05 -0.000108358 -9.72814e-05 -0.000104246 -0.000108358 -0.000118625 -0.000104246 -0.000103271 -0.000118625 -0.000121701 -0.000103271 -9.35921e-05 -0.000121701 -0.000118126 -9.35921e-05 -7.37801e-05 -0.000118126 -0.000107483 -7.37801e-05 -4.2478e-05 -0.000107483 -8.9022e-05 -4.2478e-05 1.28541e-06 -8.9022e-05 -6.20287e-05 1.28541e-06 5.80455e-05 -6.20287e-05 -2.59913e-05 5.80455e-05 0.000127954 -2.59913e-05 1.93558e-05 0.000127954 0.000210862 1.93558e-05 7.40511e-05 0.000210862 0.000306404 7.40511e-05 0.00013795 0.000306404 0.00041407 0.00013795 0.000210774 0.00041407 0.000533259 0.000210774 0.000292158 0.000533259 0.000663328 0.000292158 0.00038169 0.000663328 0.000803624 0.00038169 0.000478943 0.000803624 0.000953502 0.000478943 0.000583495 0.000953502 0.00111234 0.000583495 0.000694947 0.00111234 0.00127957 0.000694947 0.000812935 0.00127957 0.00145462 0.000812935 0.00093713 0.00145462 0.001637 0.00093713 0.00106724 0.001637 0.00182622 0.00106724 0.00120301 0.00182622 0.00202183 0.00120301 0.00134421 0.00202183 0.00222337 0.00134421 0.00149062 0.00222337 0.00243042 0.00149062 0.00164206 0.00243042 0.0026425 0.00164206 0.00179831 0.0026425 0.00285914 0.00179831 0.00195915 0.00285914 0.0030798 0.00195915 0.00212431 0.0030798 0.00330386 0.00212431 0.00229345 0.00330386 0.00353059 0.00229345 0.00246612 0.00353059 0.00375914 0.00246612 0.00264174 0.00375914 0.00398845 0.00264174 0.00281949 0.00398845 0.00421727 0.00281949 0.00299834 0.00421727 0.00444409 0.00299834 0.00317697 0.00444409 0.00466716 0.00317697 0.00335376 0.00466716 0.00488449 0.00335376 0.00352679 0.00488449 0.00509382 0.00352679 0.00369392 0.00509382 0.00529269 0.00369392 0.00385275 0.00529269 0.00547841 0.00385275 0.00400073 0.00547841 0.00564809 0.00400073 0.00413509 0.00564809 0.00579868 0.00413509 0.00425297 0.00579868 0.00592708 0.00425297 0.00435155 0.00592708 0.00603036 0.00435155 0.00442836 0.00603036 0.00610593 0.00442836 0.00448173 0.00610593 0.00615197 0.00448173 0.00451116 0.00615197 0.00616869 0.00451116 0.00451836 0.00616869 0.00616168 0.00451836 0.00449945 0.00616168 0.0061421 0.00449945 0.00428247 0.0061421 0.00604159 0.00428247 0.00366141 0.00604159 0.0056375 0.00366141 0.00254869 0.0056375 0.00466071 0.00254869 0.00112513 0.00466071 0.00334494 0.00112513 0.000168899 0.00334494 0.00244172 0.000168899 -6.95339e-05 0.00244172 0.00223968 -6.95339e-05 -6.75992e-05 0.00223968 0.00225759 -6.75992e-05 -8.05583e-05 0.00225759 0.00227162 -8.05583e-05 -9.76596e-05 0.00227162 0.00230155 -9.76596e-05 -9.46366e-05 0.00230155 0.00235569 -9.46366e-05 -5.9929e-05 0.00235569 0.00244911 -5.9929e-05 1.86448e-05 0 -5.48313e-05 0 -6.26889e-05 -5.48313e-05 -8.86354e-05 -6.26889e-05 -0.000105614 -8.86354e-05 -0.000108358 -0.000105614 -0.000134508 -0.000108358 -0.000118625 -0.000134508 -0.000153712 -0.000118625 -0.000121701 -0.000153712 -0.000165957 -0.000121701 -0.000118126 -0.000165957 -0.00017259 -0.000118126 -0.000107483 -0.00017259 -0.000174014 -0.000107483 -8.9022e-05 -0.000174014 -0.000170122 -8.9022e-05 -6.20287e-05 -0.000170122 -0.000160618 -6.20287e-05 -2.59913e-05 -0.000160618 -0.000145215 -2.59913e-05 1.93558e-05 -0.000145215 -0.000123724 1.93558e-05 7.40511e-05 -0.000123724 -9.6085e-05 7.40511e-05 0.00013795 -9.6085e-05 -6.23558e-05 0.00013795 0.000210774 -6.23558e-05 -2.2686e-05 0.000210774 0.000292158 -2.2686e-05 2.27148e-05 0.000292158 0.00038169 2.27148e-05 7.36073e-05 0.00038169 0.000478943 7.36073e-05 0.000129748 0.000478943 0.000583495 0.000129748 0.00019091 0.000583495 0.000694947 0.00019091 0.000256896 0.000694947 0.000812935 0.000256896 0.000327549 0.000812935 0.00093713 0.000327549 0.000402752 0.00093713 0.00106724 0.000402752 0.000482434 0.00106724 0.00120301 0.000482434 0.000566564 0.00120301 0.00134421 0.000566564 0.000655143 0.00134421 0.00149062 0.000655143 0.0007482 0.00149062 0.00164206 0.0007482 0.000845781 0.00164206 0.00179831 0.000845781 0.000947936 0.00179831 0.00195915 0.000947936 0.0010547 0.00195915 0.00212431 0.0010547 0.00116609 0.00212431 0.00229345 0.00116609 0.