# vtk DataFile Version 3.0
#This file was generated by the deal.II library on 2021/2/10 at 3:17:05
ASCII
DATASET UNSTRUCTURED_GRID

POINTS 14400 double
0 -0.5 0
0.0166667 -0.5 0
0 -0.483333 0
0.0166667 -0.483333 0
0.0166667 -0.5 0
0.0333333 -0.5 0
0.0166667 -0.483333 0
0.0333333 -0.483333 0
0.0333333 -0.5 0
0.05 -0.5 0
0.0333333 -0.483333 0
0.05 -0.483333 0
0.05 -0.5 0
0.0666667 -0.5 0
0.05 -0.483333 0
0.0666667 -0.483333 0
0.0666667 -0.5 0
0.0833333 -0.5 0
0.0666667 -0.483333 0
0.0833333 -0.483333 0
0.0833333 -0.5 0
0.1 -0.5 0
0.0833333 -0.483333 0
0.1 -0.483333 0
0.1 -0.5 0
0.116667 -0.5 0
0.1 -0.483333 0
0.116667 -0.483333 0
0.116667 -0.5 0
0.133333 -0.5 0
0.116667 -0.483333 0
0.133333 -0.483333 0
0.133333 -0.5 0
0.15 -0.5 0
0.133333 -0.483333 0
0.15 -0.483333 0
0.15 -0.5 0
0.166667 -0.5 0
0.15 -0.483333 0
0.166667 -0.483333 0
0.166667 -0.5 0
0.183333 -0.5 0
0.166667 -0.483333 0
0.183333 -0.483333 0
0.183333 -0.5 0
0.2 -0.5 0
0.183333 -0.483333 0
0.2 -0.483333 0
0.2 -0.5 0
0.216667 -0.5 0
0.2 -0.483333 0
0.216667 -0.483333 0
0.216667 -0.5 0
0.233333 -0.5 0
0.216667 -0.483333 0
0.233333 -0.483333 0
0.233333 -0.5 0
0.25 -0.5 0
0.233333 -0.483333 0
0.25 -0.483333 0
0.25 -0.5 0
0.266667 -0.5 0
0.25 -0.483333 0
0.266667 -0.483333 0
0.266667 -0.5 0
0.283333 -0.5 0
0.266667 -0.483333 0
0.283333 -0.483333 0
0.283333 -0.5 0
0.3 -0.5 0
0.283333 -0.483333 0
0.3 -0.483333 0
0.3 -0.5 0
0.316667 -0.5 0
0.3 -0.483333 0
0.316667 -0.483333 0
0.316667 -0.5 0
0.333333 -0.5 0
0.316667 -0.483333 0
0.333333 -0.483333 0
0.333333 -0.5 0
0.35 -0.5 0
0.333333 -0.483333 0
0.35 -0.483333 0
0.35 -0.5 0
0.366667 -0.5 0
0.35 -0.483333 0
0.366667 -0.483333 0
0.366667 -0.5 0
0.383333 -0.5 0
0.366667 -0.483333 0
0.383333 -0.483333 0
0.383333 -0.5 0
0.4 -0.5 0
0.383333 -0.483333 0
0.4 -0.483333 0
0.4 -0.5 0
0.416667 -0.5 0
0.4 -0.483333 0
0.416667 -0.483333 0
0.416667 -0.5 0
0.433333 -0.5 0
0.416667 -0.483333 0
0.433333 -0.483333 0
0.433333 -0.5 0
0.45 -0.5 0
0.433333 -0.483333 0
0.45 -0.483333 0
0.45 -0.5 0
0.466667 -0.5 0
0.45 -0.483333 0
0.466667 -0.483333 0
0.466667 -0.5 0
0.483333 -0.5 0
0.466667 -0.483333 0
0.483333 -0.483333 0
0.483333 -0.5 0
0.5 -0.5 0
0.483333 -0.483333 0
0.5 -0.483333 0
0.5 -0.5 0
0.516667 -0.5 0
0.5 -0.483333 0
0.516667 -0.483333 0
0.516667 -0.5 0
0.533333 -0.5 0
0.516667 -0.483333 0
0.533333 -0.483333 0
0.533333 -0.5 0
0.55 -0.5 0
0.533333 -0.483333 0
0.55 -0.483333 0
0.55 -0.5 0
0.566667 -0.5 0
0.55 -0.483333 0
0.566667 -0.483333 0
0.566667 -0.5 0
0.583333 -0.5 0
0.566667 -0.483333 0
0.583333 -0.483333 0
0.583333 -0.5 0
0.6 -0.5 0
0.583333 -0.483333 0
0.6 -0.483333 0
0.6 -0.5 0
0.616667 -0.5 0
0.6 -0.483333 0
0.616667 -0.483333 0
0.616667 -0.5 0
0.633333 -0.5 0
0.616667 -0.483333 0
0.633333 -0.483333 0
0.633333 -0.5 0
0.65 -0.5 0
0.633333 -0.483333 0
0.65 -0.483333 0
0.65 -0.5 0
0.666667 -0.5 0
0.65 -0.483333 0
0.666667 -0.483333 0
0.666667 -0.5 0
0.683333 -0.5 0
0.666667 -0.483333 0
0.683333 -0.483333 0
0.683333 -0.5 0
0.7 -0.5 0
0.683333 -0.483333 0
0.7 -0.483333 0
0.7 -0.5 0
0.716667 -0.5 0
0.7 -0.483333 0
0.716667 -0.483333 0
0.716667 -0.5 0
0.733333 -0.5 0
0.716667 -0.483333 0
0.733333 -0.483333 0
0.733333 -0.5 0
0.75 -0.5 0
0.733333 -0.483333 0
0.75 -0.483333 0
0.75 -0.5 0
0.766667 -0.5 0
0.75 -0.483333 0
0.766667 -0.483333 0
0.766667 -0.5 0
0.783333 -0.5 0
0.766667 -0.483333 0
0.783333 -0.483333 0
0.783333 -0.5 0
0.8 -0.5 0
0.783333 -0.483333 0
0.8 -0.483333 0
0.8 -0.5 0
0.816667 -0.5 0
0.8 -0.483333 0
0.816667 -0.483333 0
0.816667 -0.5 0
0.833333 -0.5 0
0.816667 -0.483333 0
0.833333 -0.483333 0
0.833333 -0.5 0
0.85 -0.5 0
0.833333 -0.483333 0
0.85 -0.483333 0
0.85 -0.5 0
0.866667 -0.5 0
0.85 -0.483333 0
0.866667 -0.483333 0
0.866667 -0.5 0
0.883333 -0.5 0
0.866667 -0.483333 0
0.883333 -0.483333 0
0.883333 -0.5 0
0.9 -0.5 0
0.883333 -0.483333 0
0.9 -0.483333 0
0.9 -0.5 0
0.916667 -0.5 0
0.9 -0.483333 0
0.916667 -0.483333 0
0.916667 -0.5 0
0.933333 -0.5 0
0.916667 -0.483333 0
0.933333 -0.483333 0
0.933333 -0.5 0
0.95 -0.5 0
0.933333 -0.483333 0
0.95 -0.483333 0
0.95 -0.5 0
0.966667 -0.5 0
0.95 -0.483333 0
0.966667 -0.483333 0
0.966667 -0.5 0
0.983333 -0.5 0
0.966667 -0.483333 0
0.983333 -0.483333 0
0.983333 -0.5 0
1 -0.5 0
0.983333 -0.483333 0
1 -0.483333 0
0 -0.483333 0
0.0166667 -0.483333 0
0 -0.466667 0
0.0166667 -0.466667 0
0.0166667 -0.483333 0
0.0333333 -0.483333 0
0.0166667 -0.466667 0
0.0333333 -0.466667 0
0.0333333 -0.483333 0
0.05 -0.483333 0
0.0333333 -0.466667 0
0.05 -0.466667 0
0.05 -0.483333 0
0.0666667 -0.483333 0
0.05 -0.466667 0
0.0666667 -0.466667 0
0.0666667 -0.483333 0
0.0833333 -0.483333 0
0.0666667 -0.466667 0
0.0833333 -0.466667 0
0.0833333 -0.483333 0
0.1 -0.483333 0
0.0833333 -0.466667 0
0.1 -0.466667 0
0.1 -0.483333 0
0.116667 -0.483333 0
0.1 -0.466667 0
0.116667 -0.466667 0
0.116667 -0.483333 0
0.133333 -0.483333 0
0.116667 -0.466667 0
0.133333 -0.466667 0
0.133333 -0.483333 0
0.15 -0.483333 0
0.133333 -0.466667 0
0.15 -0.466667 0
0.15 -0.483333 0
0.166667 -0.483333 0
0.15 -0.466667 0
0.166667 -0.466667 0
0.166667 -0.483333 0
0.183333 -0.483333 0
0.166667 -0.466667 0
0.183333 -0.466667 0
0.183333 -0.483333 0
0.2 -0.483333 0
0.183333 -0.466667 0
0.2 -0.466667 0
0.2 -0.483333 0
0.216667 -0.483333 0
0.2 -0.466667 0
0.216667 -0.466667 0
0.216667 -0.483333 0
0.233333 -0.483333 0
0.216667 -0.466667 0
0.233333 -0.466667 0
0.233333 -0.483333 0
0.25 -0.483333 0
0.233333 -0.466667 0
0.25 -0.466667 0
0.25 -0.483333 0
0.266667 -0.483333 0
0.25 -0.466667 0
0.266667 -0.466667 0
0.266667 -0.483333 0
0.283333 -0.483333 0
0.266667 -0.466667 0
0.283333 -0.466667 0
0.283333 -0.483333 0
0.3 -0.483333 0
0.283333 -0.466667 0
0.3 -0.466667 0
0.3 -0.483333 0
0.316667 -0.483333 0
0.3 -0.466667 0
0.316667 -0.466667 0
0.316667 -0.483333 0
0.333333 -0.483333 0
0.316667 -0.466667 0
0.333333 -0.466667 0
0.333333 -0.483333 0
0.35 -0.483333 0
0.333333 -0.466667 0
0.35 -0.466667 0
0.35 -0.483333 0
0.366667 -0.483333 0
0.35 -0.466667 0
0.366667 -0.466667 0
0.366667 -0.483333 0
0.383333 -0.483333 0
0.366667 -0.466667 0
0.383333 -0.466667 0
0.383333 -0.483333 0
0.4 -0.483333 0
0.383333 -0.466667 0
0.4 -0.466667 0
0.4 -0.483333 0
0.416667 -0.483333 0
0.4 -0.466667 0
0.416667 -0.466667 0
0.416667 -0.483333 0
0.433333 -0.483333 0
0.416667 -0.466667 0
0.433333 -0.466667 0
0.433333 -0.483333 0
0.45 -0.483333 0
0.433333 -0.466667 0
0.45 -0.466667 0
0.45 -0.483333 0
0.466667 -0.483333 0
0.45 -0.466667 0
0.466667 -0.466667 0
0.466667 -0.483333 0
0.483333 -0.483333 0
0.466667 -0.466667 0
0.483333 -0.466667 0
0.483333 -0.483333 0
0.5 -0.483333 0
0.483333 -0.466667 0
0.5 -0.466667 0
0.5 -0.483333 0
0.516667 -0.483333 0
0.5 -0.466667 0
0.516667 -0.466667 0
0.516667 -0.483333 0
0.533333 -0.483333 0
0.516667 -0.466667 0
0.533333 -0.466667 0
0.533333 -0.483333 0
0.55 -0.483333 0
0.533333 -0.466667 0
0.55 -0.466667 0
0.55 -0.483333 0
0.566667 -0.483333 0
0.55 -0.466667 0
0.566667 -0.466667 0
0.566667 -0.483333 0
0.583333 -0.483333 0
0.566667 -0.466667 0
0.583333 -0.466667 0
0.583333 -0.483333 0
0.6 -0.483333 0
0.583333 -0.466667 0
0.6 -0.466667 0
0.6 -0.483333 0
0.616667 -0.483333 0
0.6 -0.466667 0
0.616667 -0.466667 0
0.616667 -0.483333 0
0.633333 -0.483333 0
0.616667 -0.466667 0
0.633333 -0.466667 0
0.633333 -0.483333 0
0.65 -0.483333 0
0.633333 -0.466667 0
0.65 -0.466667 0
0.65 -0.483333 0
0.666667 -0.483333 0
0.65 -0.466667 0
0.666667 -0.466667 0
0.666667 -0.483333 0
0.683333 -0.483333 0
0.666667 -0.466667 0
0.683333 -0.466667 0
0.683333 -0.483333 0
0.7 -0.483333 0
0.683333 -0.466667 0
0.7 -0.466667 0
0.7 -0.483333 0
0.716667 -0.483333 0
0.7 -0.466667 0
0.716667 -0.466667 0
0.716667 -0.483333 0
0.733333 -0.483333 0
0.716667 -0.466667 0
0.733333 -0.466667 0
0.733333 -0.483333 0
0.75 -0.483333 0
0.733333 -0.466667 0
0.75 -0.466667 0
0.75 -0.483333 0
0.766667 -0.483333 0
0.75 -0.466667 0
0.766667 -0.466667 0
0.766667 -0.483333 0
0.783333 -0.483333 0
0.766667 -0.466667 0
0.783333 -0.466667 0
0.783333 -0.483333 0
0.8 -0.483333 0
0.783333 -0.466667 0
0.8 -0.466667 0
0.8 -0.483333 0
0.816667 -0.483333 0
0.8 -0.466667 0
0.816667 -0.466667 0
0.816667 -0.483333 0
0.833333 -0.483333 0
0.816667 -0.466667 0
0.833333 -0.466667 0
0.833333 -0.483333 0
0.85 -0.483333 0
0.833333 -0.466667 0
0.85 -0.466667 0
0.85 -0.483333 0
0.866667 -0.483333 0
0.85 -0.466667 0
0.866667 -0.466667 0
0.866667 -0.483333 0
0.883333 -0.483333 0
0.866667 -0.466667 0
0.883333 -0.466667 0
0.883333 -0.483333 0
0.9 -0.483333 0
0.883333 -0.466667 0
0.9 -0.466667 0
0.9 -0.483333 0
0.916667 -0.483333 0
0.9 -0.466667 0
0.916667 -0.466667 0
0.916667 -0.483333 0
0.933333 -0.483333 0
0.916667 -0.466667 0
0.933333 -0.466667 0
0.933333 -0.483333 0
0.95 -0.483333 0
0.933333 -0.466667 0
0.95 -0.466667 0
0.95 -0.483333 0
0.966667 -0.483333 0
0.95 -0.466667 0
0.966667 -0.466667 0
0.966667 -0.483333 0
0.983333 -0.483333 0
0.966667 -0.466667 0
0.983333 -0.466667 0
0.983333 -0.483333 0
1 -0.483333 0
0.983333 -0.466667 0
1 -0.466667 0
0 -0.466667 0
0.0166667 -0.466667 0
0 -0.45 0
0.0166667 -0.45 0
0.0166667 -0.466667 0
0.0333333 -0.466667 0
0.0166667 -0.45 0
0.0333333 -0.45 0
0.0333333 -0.466667 0
0.05 -0.466667 0
0.0333333 -0.45 0
0.05 -0.45 0
0.05 -0.466667 0
0.0666667 -0.466667 0
0.05 -0.45 0
0.0666667 -0.45 0
0.0666667 -0.466667 0
0.0833333 -0.466667 0
0.0666667 -0.45 0
0.0833333 -0.45 0
0.0833333 -0.466667 0
0.1 -0.466667 0
0.0833333 -0.45 0
0.1 -0.45 0
0.1 -0.466667 0
0.116667 -0.466667 0
0.1 -0.45 0
0.116667 -0.45 0
0.116667 -0.466667 0
0.133333 -0.466667 0
0.116667 -0.45 0
0.133333 -0.45 0
0.133333 -0.466667 0
0.15 -0.466667 0
0.133333 -0.45 0
0.15 -0.45 0
0.15 -0.466667 0
0.166667 -0.466667 0
0.15 -0.45 0
0.166667 -0.45 0
0.166667 -0.466667 0
0.183333 -0.466667 0
0.166667 -0.45 0
0.183333 -0.45 0
0.183333 -0.466667 0
0.2 -0.466667 0
0.183333 -0.45 0
0.2 -0.45 0
0.2 -0.466667 0
0.216667 -0.466667 0
0.2 -0.45 0
0.216667 -0.45 0
0.216667 -0.466667 0
0.233333 -0.466667 0
0.216667 -0.45 0
0.233333 -0.45 0
0.233333 -0.466667 0
0.25 -0.466667 0
0.233333 -0.45 0
0.25 -0.45 0
[...]
POINT_DATA 14400
SCALARS x1_displacement double 1
LOOKUP_TABLE default
0 -0.00262398 0 -0.00114231 -0.00262398 -0.00409704 -0.00114231 -0.00272516 -0.00409704 -0.00346906 -0.00272516 -0.00320884 -0.00346906 -0.00261431 -0.00320884 -0.00286907 -0.00261431 -0.00188972 -0.00286907 -0.00238103 -0.00188972 -0.00122002 -0.00238103 -0.00184598 -0.00122002 -0.000586195 -0.00184598 -0.001293 -0.000586195 2.59027e-05 -0.001293 -0.000734338 2.59027e-05 0.000622599 -0.000734338 -0.000177021 0.000622599 0.00120621 -0.000177021 0.000375985 0.00120621 0.00177751 0.000375985 0.000922314 0.00177751 0.00233663 0.000922314 0.00146056 0.00233663 0.00288407 0.00146056 0.00199036 0.00288407 0.00342126 0.00199036 0.00251237 0.00342126 0.00395067 0.00251237 0.00302813 0.00395067 0.00447568 0.00302813 0.00353997 0.00447568 0.00500046 0.00353997 0.00405076 0.00500046 0.00552957 0.00405076 0.00456371 0.00552957 0.00606763 0.00456371 0.00508205 0.00606763 0.0066189 0.00508205 0.00560871 0.0066189 0.00718673 0.00560871 0.00614597 0.00718673 0.00777311 0.00614597 0.0066951 0.00777311 0.00837818 0.0066951 0.00725597 0.00837818 0.00899988 0.00725597 0.00782687 0.00899988 0.00963381 0.00782687 0.00840434 0.00963381 0.0102734 0.00840434 0.0089833 0.0102734 0.0109102 0.0089833 0.00955735 0.0109102 0.0115349 0.00955735 0.0101193 0.0115349 0.0121378 0.0101193 0.0106618 0.0121378 0.0127102 0.0106618 0.011178 0.0127102 0.0132446 0.011178 0.0116621 0.0132446 0.0137358 0.0116621 0.0121097 0.0137358 0.0141808 0.0121097 0.0125182 0.0141808 0.0145787 0.0125182 0.0128864 0.0145787 0.0149305 0.0128864 0.0132146 0.0149305 0.0152386 0.0132146 0.0135038 0.0152386 0.015506 0.0135038 0.013756 0.015506 0.0157361 0.013756 0.0139733 0.0157361 0.015932 0.0139733 0.0141575 0.015932 0.0160966 0.0141575 0.0143105 0.0160966 0.0162319 0.0143105 0.0144338 0.0162319 0.0163399 0.0144338 0.0145284 0.0163399 0.0164224 0.0145284 0.0145956 0.0164224 0.0164815 0.0145956 0.0146366 0.0164815 0.0165201 0.0146366 0.0146532 0.0165201 0.0165418 0.0146532 0.0146476 0.0165418 0.0165511 0.0146476 0.0146224 0.0165511 0.0165528 0.0146224 0.0145805 0.0165528 0.0165523 0.0145805 0.014525 0.0165523 0.0165556 0.014525 0.0144589 0.0165556 0.0165696 0.0144589 0.0143855 0.0165696 0.0166028 0.0143855 0.0143087 0.0166028 0.0166637 0.0143087 0.0142332 0.0166637 0.0167554 0.0142332 0.0141657 0.0167554 0.0168657 0.0141657 0.0141094 0.0168657 0.0169641 0.0141094 0.0140542 0.0169641 0.0170225 0.0140542 0.0139856 0.0170225 0.0170427 0.0139856 0.013913 0.0170427 0.0170496 0.013913 0.013868 0.0170496 0.0170522 0.013868 0.0138573 0 -0.00114231 0 -0.0011638 -0.00114231 -0.00272516 -0.0011638 -0.00245916 -0.00272516 -0.00320884 -0.00245916 -0.00353078 -0.00320884 -0.00286907 -0.00353078 -0.0033706 -0.00286907 -0.00238103 -0.0033706 -0.00296103 -0.00238103 -0.00184598 -0.00296103 -0.00250236 -0.00184598 -0.001293 -0.00250236 -0.00200359 -0.001293 -0.000734338 -0.00200359 -0.00148861 -0.000734338 -0.000177021 -0.00148861 -0.000963827 -0.000177021 0.000375985 -0.000963827 -0.000436737 0.000375985 0.000922314 -0.000436737 8.72554e-05 0.000922314 0.00146056 8.72554e-05 0.000605144 0.00146056 0.00199036 0.000605144 0.00111559 0.00199036 0.00251237 0.00111559 0.00161856 0.00251237 0.00302813 0.00161856 0.002115 0.00302813 0.00353997 0.002115 0.00260662 0.00353997 0.00405076 0.00260662 0.00309564 0.00405076 0.00456371 0.00309564 0.0035846 0.00456371 0.00508205 0.0035846 0.00407614 0.00508205 0.00560871 0.00407614 0.00457278 0.00560871 0.00614597 0.00457278 0.00507661 0.00614597 0.0066951 0.00507661 0.00558894 0.0066951 0.00725597 0.00558894 0.00611001 0.00725597 0.00782687 0.00611001 0.00663864 0.00782687 0.00840434 0.00663864 0.00717208 0.00840434 0.0089833 0.00717208 0.00770599 0.0089833 0.00955735 0.00770599 0.00823472 0.00955735 0.0101193 0.00823472 0.0087518 0.0101193 0.0106618 0.0087518 0.00925053 0.0106618 0.011178 0.00925053 0.00972472 0.011178 0.0116621 0.00972472 0.0101692 0.0116621 0.0121097 0.0101692 0.0105801 0.0121097 0.0125182 0.0105801 0.0109551 0.0125182 0.0128864 0.0109551 0.0112934 0.0128864 0.0132146 0.0112934 0.0115952 0.0132146 0.0135038 0.0115952 0.0118614 0.0135038 0.013756 0.0118614 0.0120935 0.013756 0.0139733 0.0120935 0.012293 0.0139733 0.0141575 0.012293 0.0124612 0.0141575 0.0143105 0.0124612 0.012599 0.0143105 0.0144338 0.012599 0.012707 0.0144338 0.0145284 0.012707 0.0127852 0.0145284 0.0145956 0.0127852 0.0128336 0.0145956 0.0146366 0.0128336 0.0128522 0.0146366 0.0146532 0.0128522 0.0128413 0.0146532 0.0146476 0.0128413 0.0128018 0.0146476 0.0146224 0.0128018 0.0127349 0.0146224 0.0145805 0.0127349 0.0126419 0.0145805 0.014525 0.0126419 0.0125234 0.014525 0.0144589 0.0125234 0.012379 0.0144589 0.0143855 0.012379 0.012209 0.0143855 0.0143087 0.012209 0.0120142 0.0143087 0.0142332 0.0120142 0.0117963 0.0142332 0.0141657 0.0117963 0.0115663 0.0141657 0.0141094 0.0115663 0.0113509 0.0141094 0.0140542 0.0113509 0.0111503 0.0140542 0.0139856 0.0111503 0.0109351 0.0139856 0.013913 0.0109351 0.0107303 0.013913 0.013868 0.0107303 0.0106174 0.013868 0.0138573 0.0106174 0.0106132 0 -0.0011638 0 -0.00108011 -0.0011638 -0.00245916 -0.00108011 -0.00235515 -0.00245916 -0.00353078 -0.00235515 -0.00364765 -0.00353078 -0.0033706 -0.00364765 -0.00419226 -0.0033706 -0.00296103 -0.00419226 -0.00373485 -0.00296103 -0.00250236 -0.00373485 -0.00324063 -0.00250236 -0.00200359 -0.00324063 -0.00276023 -0.00200359 -0.00148861 -0.00276023 -0.00226218 -0.00148861 -0.000963827 -0.00226218 -0.00175287 -0.000963827 -0.000436737 -0.00175287 -0.00124207 -0.000436737 8.72554e-05 -0.00124207 -0.000735061 8.72554e-05 0.000605144 -0.000735061 -0.000235247 0.000605144 0.00111559 -0.000235247 0.000255743 0.00111559 0.00161856 0.000255743 0.000737693 0.00161856 0.002115 0.000737693 0.00121138 0.002115 0.00260662 0.00121138 0.00167832 0.00260662 0.00309564 0.00167832 0.0021405 0.00309564 0.0035846 0.0021405 0.00260035 0.0035846 0.00407614 0.00260035 0.00306048 0.00407614 0.00457278 0.00306048 0.00352362 0.00457278 0.00507661 0.00352362 0.00399227 0.00507661 0.00558894 0.00399227 0.00446843 0.00558894 0.00611001 0.00446843 0.00495312 0.00611001 0.00663864 0.00495312 0.00544591 0.00663864 0.00717208 0.00544591 0.00594463 0.00717208 0.00770599 0.00594463 0.00644517 0.00770599 0.00823472 0.00644517 0.00694177 0.00823472 0.0087518 0.00694177 0.00742756 0.0087518 0.00925053 0.00742756 0.00789538 0.00925053 0.00972472 0.00789538 0.0083387 0.00972472 0.0101692 0.0083387 0.00875223 0.0101692 0.0105801 0.00875223 0.00913241 0.0105801 0.0109551 0.00913241 0.0094774 0.0109551 0.0112934 0.0094774 0.00978689 0.0112934 0.0115952 0.00978689 0.0100616 0.0115952 0.0118614 0.0100616 0.0103031 0.0118614 0.0120935 0.0103031 0.0105128 0.0120935 0.012293 0.0105128 0.0106921 0.012293 0.0124612 0.0106921 0.0108421 0.0124612 0.012599 0.0108421 0.010963 0.012599 0.012707 0.010963 0.0110545 0.012707 0.0127852 0.0110545 0.0111153 0.0127852 0.0128336 0.0111153 0.0111439 0.0128336 0.0128522 0.0111439 0.0111385 0.0128522 0.0128413 0.0111385 0.0110982 0.0128413 0.0128018 0.0110982 0.0110225 0.0128018 0.0127349 0.0110225 0.0109118 0.0127349 0.0126419 0.0109118 0.0107656 0.0126419 0.0125234 0.0107656 0.0105826 0.0125234 0.012379 0.0105826 0.0103601 0.012379 0.012209 0.0103601 0.0100929 0.012209 0.0120142 0.0100929 0.00978007 0.0120142 0.0117963 0.00978007 0.00942596 0.0117963 0.0115663 0.00942596 0.00901423 0.0115663 0.0113509 0.00901423 0.00857653 0.0113509 0.0111503 0.00857653 0.00815811 0.0111503 0.0109351 0.00815811 0.00772985 0.0109351 0.0107303 0.00772985 0.00738301 0.0107303 0.0106174 0.00738301 0.00726471 0.0106174 0.0106132 0.00726471 0.00732635 0 -0.00108011 0 -0.00100677 -0.00108011 -0.00235515 -0.00100677 -0.00223114 -0.00235515 -0.00364765 -0.00223114 -0.00355688 -0.00364765 -0.00419226 -0.00355688 -0.00469943 -0.00419226 -0.00373485 -0.00469943 -0.00457572 -0.00373485 -0.00324063 -0.00457572 -0.00407919 -0.00324063 -0.00276023 -0.00407919 -0.00357719 -0.00276023 -0.00226218 -0.00357719 -0.0030606 -0.00226218 -0.00175287 -0.0030606 -0.00254948 -0.00175287 -0.00124207 -0.00254948 -0.00204409 -0.00124207 -0.000735061 -0.00204409 -0.00154772 -0.000735061 -0.000235247 -0.00154772 -0.00106287 -0.000235247 0.000255743 -0.00106287 -0.000590414 0.000255743 0.000737693 -0.000590414 -0.000130151 0.000737693 0.00121138 -0.000130151 0.00031896 0.00121138 0.00167832 0.00031896 0.000758564 0.00167832 0.0021405 0.000758564 0.00119079 0.0021405 0.00260035 0.00119079 0.00161822 0.00260035 0.00306048 0.00161822 0.00204382 0.00306048 0.00352362 0.00204382 0.00247094 0.00352362 0.00399227 0.00247094 0.00290298 0.00399227 0.00446843 0.00290298 0.00334311 0.00446843 0.00495312 0.00334311 0.0037936 0.00495312 0.00544591 0.0037936 0.00425511 0.00544591 0.00594463 0.00425511 0.00472609 0.00594463 0.00644517 0.00472609 0.00520235 0.00644517 0.00694177 0.00520235 0.00567733 0.00694177 0.00742756 0.00567733 0.00614282 0.00742756 0.00789538 0.00614282 0.00659021 0.00789538 0.0083387 0.00659021 0.00701178 0.0083387 0.00875223 0.00701178 0.00740167 0.00875223 0.00913241 0.00740167 0.00775634 0.00913241 0.0094774 0.00775634 0.00807457 0.0094774 0.00978689 0.00807457 0.00835695 0.00978689 0.0100616 0.00835695 0.00860526 0.0100616 0.0103031 0.00860526 0.00882176 0.0103031 0.0105128 0.00882176 0.00900861 0.0105128 0.0106921 0.00900861 0.00916742 0.0106921 0.0108421 0.00916742 0.00929904 0.0108421 0.010963 0.00929904 0.00940333 0.010963 0.0110545 0.00940333 0.00947904 0.0110545 0.0111153 0.00947904 0.00952376 0.0111153 0.0111439 0.00952376 0.00953412 0.0111439 0.0111385 0.00953412 0.0095065 0.0111385 0.0110982 0.0095065 0.00943826 0.0110982 0.0110225 0.00943826 0.00932789 0.0110225 0.0109118 0.00932789 0.00917535 0.0109118 0.0107656 0.00917535 0.00898028 0.0107656 0.0105826 0.00898028 0.00873718 0.0105826 0.0103601 0.00873718 0.00844097 0.0103601 0.0100929 0.00844097 0.00809054 0.0100929 0.00978007 0.00809054 0.00766366 0.00978007 0.00942596 0.00766366 0.00717667 0.00942596 0.00901423 0.00717667 0.00665024 0.00901423 0.00857653 0.00665024 0.00591997 0.00857653 0.00815811 0.00591997 0.00480539 0.00815811 0.00772985 0.00480539 0.00397111 0.00772985 0.00738301 0.00397111 0.00386238 0.00738301 0.00726471 0.00386238 0.00395208 0.00726471 0.00732635 0.00395208 0.00413754 0 -0.00100677 0 -0.000966907 -0.00100677 -0.00223114 -0.000966907 -0.00215778 -0.00223114 -0.00355688 -0.00215778 -0.00348521 -0.00355688 -0.00469943 -0.00348521 -0.00479907 -0.00469943 -0.00457572 -0.00479907 -0.00556986 -0.00457572 -0.00407919 -0.00556986 -0.0050227 -0.00407919 -0.00357719 -0.0050227 -0.00441418 -0.00357719 -0.0030606 -0.00441418 -0.00387171 -0.0030606 -0.00254948 -0.00387171 -0.00334827 -0.00254948 -0.00204409 -0.00334827 -0.00284008 -0.00204409 -0.00154772 -0.00284008 -0.00234963 -0.00154772 -0.00106287 -0.00234963 -0.00187704 -0.00106287 -0.000590414 -0.00187704 -0.00142196 -0.000590414 -0.000130151 -0.00142196 -0.000983304 -0.000130151 0.00031896 -0.000983304 -0.000559476 0.00031896 0.000758564 -0.000559476 -0.000148485 0.000758564 0.00119079 -0.000148485 0.000252047 0.00119079 0.00161822 0.000252047 0.000644997 0.00161822 0.00204382 0.000644997 0.00103386 0.00204382 0.00247094 0.00103386 0.0014228 0.00247094 0.00290298 0.0014228 0.00181652 0.00290298 0.00334311 0.00181652 0.00221981 0.00334311 0.0037936 0.00221981 0.00263677 0.0037936 0.00425511 0.00263677 0.00306973 0.00425511 0.00472609 0.00306973 0.00351803 0.00472609 0.00520235 0.00351803 0.0039773 0.00520235 0.00567733 0.0039773 0.00443953 0.00567733 0.00614282 0.00443953 0.00489423 0.00614282 0.00659021 0.00489423 0.00533026 0.00659021 0.00701178 0.00533026 0.0057379 0.00701178 0.00740167 0.0057379 0.00611023 0.00740167 0.00775634 0.00611023 0.00644376 0.00775634 0.00807457 0.00644376 0.00673813 0.00807457 0.00835695 0.00673813 0.00699528 0.00835695 0.00860526 0.00699528 0.00721844 0.00860526 0.00882176 0.00721844 0.00741109 0.00882176 0.00900861 0.00741109 0.00757622 0.00900861 0.00916742 0.00757622 0.0077158 0.00916742 0.00929904 0.0077158 0.00783065 0.00929904 0.00940333 0.00783065 0.00792029 0.00940333 0.00947904 0.00792029 0.00798288 0.00947904 0.00952376 0.00798288 0.00801494 0.00952376 0.00953412 0.00801494 0.00801144 0.00953412 0.0095065 0.00801144 0.00796627 0.0095065 0.00943826 0.00796627 0.00787463 0.00943826 0.00932789 0.00787463 0.00773591 0.00932789 0.00917535 0.00773591 0.00754777 0.00917535 0.00898028 0.00754777 0.00731039 0.00898028 0.00873718 0.00731039 0.00702518 0.00873718 0.00844097 0.00702518 0.00666026 0.00844097 0.00809054 0.00666026 0.00622261 0.00809054 0.00766366 0.00622261 0.00574702 0.00766366 0.00717667 0.00574702 0.00508682 0.00717667 0.00665024 0.00508682 0.00395796 0.00665024 0.00591997 0.00395796 0.00264809 0.00591997 0.00480539 0.00264809 0.00138206 0.00480539 0.00397111 0.00138206 0.000646986 0.00397111 0.00386238 0.000646986 0.000783318 0.00386238 0.00395208 0.000783318 0.00101789 0.00395208 0.00413754 0.00101789 0.00129113 0 -0.000966907 0 -0.000934481 -0.000966907 -0.00215778 -0.000934481 -0.00209222 -0.00215778 -0.00348521 -0.00209222 -0.00337135 -0.00348521 -0.00479907 -0.00337135 -0.00468755 -0.00479907 -0.00556986 -0.00468755 -0.00584808 -0.00556986 -0.0050227 -0.00584808 -0.00578279 -0.0050227 -0.00441418 -0.00578279 -0.0052282 -0.00441418 -0.00387171 -0.0052282 -0.00467714 -0.00387171 -0.00334827 -0.00467714 -0.00413587 -0.00334827 -0.00284008 -0.00413587 -0.00362351 -0.00284008 -0.00234963 -0.00362351 -0.003137 -0.00234963 -0.00187704 -0.003137 -0.00267522 -0.00187704 -0.00142196 -0.00267522 -0.00223665 -0.00142196 -0.000983304 -0.00223665 -0.00181913 -0.000983304 -0.000559476 -0.00181913 -0.00142043 -0.000559476 -0.000148485 -0.00142043 -0.00103823 -0.000148485 0.000252047 -0.00103823 -0.000669971 0.000252047 0.000644997 -0.000669971 -0.000312547 0.000644997 0.00103386 -0.000312547 3.7991e-05 0.00103386 0.0014228 3.7991e-05 0.000386686 0.0014228 0.00181652 0.000386686 0.000739707 0.00181652 0.00221981 0.000739707 0.00110398 0.00221981 0.00263677 0.00110398 0.0014862 0.00263677 0.00306973 0.0014862 0.00189122 0.00306973 0.00351803 0.00189122 0.00232003 0.00351803 0.0039773 0.00232003 0.00276821 0.0039773 0.00443953 0.00276821 0.00322569 0.00443953 0.00489423 0.00322569 0.0036784 0.00489423 0.00533026 0.0036784 0.00411138 0.00533026 0.0057379 0.00411138 0.00451192 0.0057379 0.00611023 0.00451192 0.00487177 0.00611023 0.00644376 0.00487177 0.00518763 0.00644376 0.00673813 0.00518763 0.00546052 0.00673813 0.00699528 0.00546052 0.00569431 0.00699528 0.00721844 0.00569431 0.00589418 0.00721844 0.00741109 0.00589418 0.00606517 0.00741109 0.00757622 0.00606517 0.00621121 0.00757622 0.0077158 0.00621121 0.00633457 0.0077158 0.00783065 0.00633457 0.0064359 0.00783065 0.00792029 0.0064359 0.00651435 0.00792029 0.00798288 0.00651435 0.00656771 0.00798288 0.00801494 0.00656771 0.006592 0.00801494 0.00801144 0.006592 0.00658082 0.00801144 0.00796627 0.00658082 0.00652619 0.00796627 0.00787463 0.00652619 0.00641904 0.00787463 0.00773591 0.00641904 0.00625773 0.00773591 0.00754777 0.00625773 0.00605473 0.00754777 0.00731039 0.00605473 0.00578536 0.00731039 0.00702518 0.00578536 0.00545657 0.00702518 0.00666026 0.00545657 0.00509307 0.00666026 0.00622261 0.00509307 0.00450556 0.00622261 0.00574702 0.00450556 0.00340239 0.00574702 0.00508682 0.00340239 0.00207787 0.00508682 0.00395796 0.00207787 0.000639958 0.00395796 0.00264809 0.000639958 -0.000708403 0.00264809 0.00138206 -0.000708403 -0.00166545 0.00138206 0.000646986 -0.00166545 -0.00171213 0.000646986 0.000783318 -0.00171213 -0.00151985 0.000783318 0.00101789 -0.00151985 -0.00133417 0.00101789 0.00129113 -0.00133417 -0.00106106 0 -0.000934481 0 -0.000901922 -0.000934481 -0.00209222 -0.000901922 -0.0020439 -0.00209222 -0.00337135 -0.0020439 -0.00326648 -0.00337135 -0.00468755 -0.00326648 -0.00455957 -0.00468755 -0.00584808 -0.00455957 -0.00582084 -0.00584808 -0.00578279 -0.00582084 -0.00658243 -0.00578279 -0.0052282 -0.00658243 -0.00606234 -0.0052282 -0.00467714 -0.00606234 -0.00544953 -0.00467714 -0.00413587 -0.00544953 -0.00490223 -0.00413587 -0.00362351 -0.00490223 -0.0043881 -0.00362351 -0.003137 -0.0043881 -0.00390558 -0.003137 -0.00267522 -0.00390558 -0.00345457 -0.00267522 -0.00223665 -0.00345457 -0.00303196 -0.00223665 -0.00181913 -0.00303196 -0.0026347 -0.00181913 -0.00142043 -0.0026347 -0.00226011 -0.00142043 -0.00103823 -0.00226011 -0.00190577 -0.00103823 -0.000669971 -0.00190577 -0.00156919 -0.000669971 -0.000312547 -0.00156919 -0.00124731 -0.000312547 3.7991e-05 -0.00124731 -0.000935993 3.7991e-05 0.000386686 -0.000935993 -0.000629545 0.000386686 0.000739707 -0.000629545 -0.000320348 0.000739707 0.00110398 -0.000320348 1.01936e-06 0.00110398 0.0014862 1.01936e-06 0.000344796 0.0014862 0.00189122 0.000344796 0.00071979 0.00189122 0.00232003 0.00071979 0.00113007 0.00232003 0.00276821 0.00113007 0.00157178 0.00276821 0.00322569 0.00157178 0.00203205 0.00322569 0.0036784 0.00203205 0.00249149 0.0036784 0.00411138 0.00249149 0.00292932 0.00411138 0.00451192 0.00292932 0.00332877 0.00451192 0.00487177 0.00332877 0.00368006 0.00487177 0.00518763 0.00368006 0.00398072 0.00518763 0.00546052 0.00398072 0.00423393 0.00546052 0.00569431 0.00423393 0.00444624 0.00569431 0.00589418 0.00444624 0.00462536 0.00589418 0.00606517 0.00462536 0.00477823 0.00606517 0.00621121 0.00477823 0.00490968 0.00621121 0.00633457 0.00490968 0.00502187 0.00633457 0.0064359 0.00502187 0.00511474 0.0064359 0.00651435 0.00511474 0.00518685 0.00651435 0.00656771 0.00518685 0.00523541 0.00656771 0.006592 0.00523541 0.00525644 0.006592 0.00658082 0.00525644 0.00524399 0.00658082 0.00652619 0.00524399 0.00518787 0.00652619 0.00641904 0.00518787 0.00507978 0.00641904 0.00625773 0.00507978 0.00490836 0.00625773 0.00605473 0.00490836 0.00468474 0.00605473 0.00578536 0.00468474 0.0044746 0.00578536 0.00545657 0.0044746 0.00407812 0.00545657 0.00509307 0.00407812 0.0030621 0.00509307 0.00450556 0.0030621 0.0017507 0.00450556 0.00340239 0.0017507 0.000276534 0.00340239 0.00207787 0.000276534 -0.00122136 0.00207787 0.000639958 -0.00122136 -0.00263935 0.000639958 -0.000708403 -0.00263935 -0.00364531 -0.000708403 -0.00166545 -0.00364531 -0.00361865 -0.00166545 -0.00171213 -0.00361865 -0.00341984 -0.00171213 -0.00151985 -0.00341984 -0.00331465 -0.00151985 -0.00133417 -0.00331465 -0.00318862 -0.00133417 -0.00106106 -0.00318862 -0.00296117 0 -0.000901922 0 -0.000795628 -0.000901922 -0.0020439 -0.000795628 -0.00189498 -0.0020439 -0.00326648 -0.00189498 -0.00305792 -0.00326648 -0.00455957 -0.00305792 -0.00431719 -0.00455957 -0.00582084 -0.00431719 -0.00561357 -0.00582084 -0.00658243 -0.00561357 -0.00676092 -0.00658243 -0.00606234 -0.00676092 -0.00671787 -0.00606234 -0.00544953 -0.00671787 -0.00618224 -0.00544953 -0.00490223 -0.00618224 -0.00564621 -0.00490223 -0.0043881 -0.00564621 -0.00512953 -0.0043881 -0.00390558 -0.00512953 -0.00465323 -0.00390558 -0.00345457 -0.00465323 -0.00421339 -0.00345457 -0.00303196 -0.00421339 -0.00380602 -0.00303196 -0.0026347 -0.00380602 -0.00342736 -0.0026347 -0.00226011 -0.00342736 -0.00307474 -0.00226011 -0.00190577 -0.00307474 -0.00274606 -0.00190577 -0.00156919 -0.00274606 -0.00243921 -0.00156919 -0.00124731 -0.00243921 -0.00215158 -0.00124731 -0.000935993 -0.00215158 -0.00187933 -0.000935993 -0.000629545 -0.00187933 -0.00161663 -0.000629545 -0.000320348 -0.00161663 -0.00135489 -0.000320348 1.01936e-06 -0.00135489 -0.00108216 1.01936e-06 0.000344796 -0.00108216 -0.000783727 0.000344796 0.00071979 -0.000783727 -0.000444674 0.00071979 0.00113007 -0.000444674 -5.52123e-05 0.00113007 0.00157178 -5.52123e-05 0.000383002 0.00157178 0.00203205 0.000383002 0.000853519 0.00203205 0.00249149 0.000853519 0.00132868 0.00249149 0.00292932 0.00132868 0.00177896 0.00292932 0.00332877 0.00177896 0.00218211 0.00332877 0.00368006 0.00218211 0.00252732 0.00368006 0.00398072 0.00252732 0.00281413 0.00398072 0.00423393 0.00281413 0.00304905 0.00423393 0.00444624 0.00304905 0.00324215 0