# vtk DataFile Version 3.0
#This file was generated by the deal.II library on 2021/2/10 at 3:13:22
ASCII
DATASET UNSTRUCTURED_GRID

POINTS 14400 double
0 -0.5 0
0.0166667 -0.5 0
0 -0.483333 0
0.0166667 -0.483333 0
0.0166667 -0.5 0
0.0333333 -0.5 0
0.0166667 -0.483333 0
0.0333333 -0.483333 0
0.0333333 -0.5 0
0.05 -0.5 0
0.0333333 -0.483333 0
0.05 -0.483333 0
0.05 -0.5 0
0.0666667 -0.5 0
0.05 -0.483333 0
0.0666667 -0.483333 0
0.0666667 -0.5 0
0.0833333 -0.5 0
0.0666667 -0.483333 0
0.0833333 -0.483333 0
0.0833333 -0.5 0
0.1 -0.5 0
0.0833333 -0.483333 0
0.1 -0.483333 0
0.1 -0.5 0
0.116667 -0.5 0
0.1 -0.483333 0
0.116667 -0.483333 0
0.116667 -0.5 0
0.133333 -0.5 0
0.116667 -0.483333 0
0.133333 -0.483333 0
0.133333 -0.5 0
0.15 -0.5 0
0.133333 -0.483333 0
0.15 -0.483333 0
0.15 -0.5 0
0.166667 -0.5 0
0.15 -0.483333 0
0.166667 -0.483333 0
0.166667 -0.5 0
0.183333 -0.5 0
0.166667 -0.483333 0
0.183333 -0.483333 0
0.183333 -0.5 0
0.2 -0.5 0
0.183333 -0.483333 0
0.2 -0.483333 0
0.2 -0.5 0
0.216667 -0.5 0
0.2 -0.483333 0
0.216667 -0.483333 0
0.216667 -0.5 0
0.233333 -0.5 0
0.216667 -0.483333 0
0.233333 -0.483333 0
0.233333 -0.5 0
0.25 -0.5 0
0.233333 -0.483333 0
0.25 -0.483333 0
0.25 -0.5 0
0.266667 -0.5 0
0.25 -0.483333 0
0.266667 -0.483333 0
0.266667 -0.5 0
0.283333 -0.5 0
0.266667 -0.483333 0
0.283333 -0.483333 0
0.283333 -0.5 0
0.3 -0.5 0
0.283333 -0.483333 0
0.3 -0.483333 0
0.3 -0.5 0
0.316667 -0.5 0
0.3 -0.483333 0
0.316667 -0.483333 0
0.316667 -0.5 0
0.333333 -0.5 0
0.316667 -0.483333 0
0.333333 -0.483333 0
0.333333 -0.5 0
0.35 -0.5 0
0.333333 -0.483333 0
0.35 -0.483333 0
0.35 -0.5 0
0.366667 -0.5 0
0.35 -0.483333 0
0.366667 -0.483333 0
0.366667 -0.5 0
0.383333 -0.5 0
0.366667 -0.483333 0
0.383333 -0.483333 0
0.383333 -0.5 0
0.4 -0.5 0
0.383333 -0.483333 0
0.4 -0.483333 0
0.4 -0.5 0
0.416667 -0.5 0
0.4 -0.483333 0
0.416667 -0.483333 0
0.416667 -0.5 0
0.433333 -0.5 0
0.416667 -0.483333 0
0.433333 -0.483333 0
0.433333 -0.5 0
0.45 -0.5 0
0.433333 -0.483333 0
0.45 -0.483333 0
0.45 -0.5 0
0.466667 -0.5 0
0.45 -0.483333 0
0.466667 -0.483333 0
0.466667 -0.5 0
0.483333 -0.5 0
0.466667 -0.483333 0
0.483333 -0.483333 0
0.483333 -0.5 0
0.5 -0.5 0
0.483333 -0.483333 0
0.5 -0.483333 0
0.5 -0.5 0
0.516667 -0.5 0
0.5 -0.483333 0
0.516667 -0.483333 0
0.516667 -0.5 0
0.533333 -0.5 0
0.516667 -0.483333 0
0.533333 -0.483333 0
0.533333 -0.5 0
0.55 -0.5 0
0.533333 -0.483333 0
0.55 -0.483333 0
0.55 -0.5 0
0.566667 -0.5 0
0.55 -0.483333 0
0.566667 -0.483333 0
0.566667 -0.5 0
0.583333 -0.5 0
0.566667 -0.483333 0
0.583333 -0.483333 0
0.583333 -0.5 0
0.6 -0.5 0
0.583333 -0.483333 0
0.6 -0.483333 0
0.6 -0.5 0
0.616667 -0.5 0
0.6 -0.483333 0
0.616667 -0.483333 0
0.616667 -0.5 0
0.633333 -0.5 0
0.616667 -0.483333 0
0.633333 -0.483333 0
0.633333 -0.5 0
0.65 -0.5 0
0.633333 -0.483333 0
0.65 -0.483333 0
0.65 -0.5 0
0.666667 -0.5 0
0.65 -0.483333 0
0.666667 -0.483333 0
0.666667 -0.5 0
0.683333 -0.5 0
0.666667 -0.483333 0
0.683333 -0.483333 0
0.683333 -0.5 0
0.7 -0.5 0
0.683333 -0.483333 0
0.7 -0.483333 0
0.7 -0.5 0
0.716667 -0.5 0
0.7 -0.483333 0
0.716667 -0.483333 0
0.716667 -0.5 0
0.733333 -0.5 0
0.716667 -0.483333 0
0.733333 -0.483333 0
0.733333 -0.5 0
0.75 -0.5 0
0.733333 -0.483333 0
0.75 -0.483333 0
0.75 -0.5 0
0.766667 -0.5 0
0.75 -0.483333 0
0.766667 -0.483333 0
0.766667 -0.5 0
0.783333 -0.5 0
0.766667 -0.483333 0
0.783333 -0.483333 0
0.783333 -0.5 0
0.8 -0.5 0
0.783333 -0.483333 0
0.8 -0.483333 0
0.8 -0.5 0
0.816667 -0.5 0
0.8 -0.483333 0
0.816667 -0.483333 0
0.816667 -0.5 0
0.833333 -0.5 0
0.816667 -0.483333 0
0.833333 -0.483333 0
0.833333 -0.5 0
0.85 -0.5 0
0.833333 -0.483333 0
0.85 -0.483333 0
0.85 -0.5 0
0.866667 -0.5 0
0.85 -0.483333 0
0.866667 -0.483333 0
0.866667 -0.5 0
0.883333 -0.5 0
0.866667 -0.483333 0
0.883333 -0.483333 0
0.883333 -0.5 0
0.9 -0.5 0
0.883333 -0.483333 0
0.9 -0.483333 0
0.9 -0.5 0
0.916667 -0.5 0
0.9 -0.483333 0
0.916667 -0.483333 0
0.916667 -0.5 0
0.933333 -0.5 0
0.916667 -0.483333 0
0.933333 -0.483333 0
0.933333 -0.5 0
0.95 -0.5 0
0.933333 -0.483333 0
0.95 -0.483333 0
0.95 -0.5 0
0.966667 -0.5 0
0.95 -0.483333 0
0.966667 -0.483333 0
0.966667 -0.5 0
0.983333 -0.5 0
0.966667 -0.483333 0
0.983333 -0.483333 0
0.983333 -0.5 0
1 -0.5 0
0.983333 -0.483333 0
1 -0.483333 0
0 -0.483333 0
0.0166667 -0.483333 0
0 -0.466667 0
0.0166667 -0.466667 0
0.0166667 -0.483333 0
0.0333333 -0.483333 0
0.0166667 -0.466667 0
0.0333333 -0.466667 0
0.0333333 -0.483333 0
0.05 -0.483333 0
0.0333333 -0.466667 0
0.05 -0.466667 0
0.05 -0.483333 0
0.0666667 -0.483333 0
0.05 -0.466667 0
0.0666667 -0.466667 0
0.0666667 -0.483333 0
0.0833333 -0.483333 0
0.0666667 -0.466667 0
0.0833333 -0.466667 0
0.0833333 -0.483333 0
0.1 -0.483333 0
0.0833333 -0.466667 0
0.1 -0.466667 0
0.1 -0.483333 0
0.116667 -0.483333 0
0.1 -0.466667 0
0.116667 -0.466667 0
0.116667 -0.483333 0
0.133333 -0.483333 0
0.116667 -0.466667 0
0.133333 -0.466667 0
0.133333 -0.483333 0
0.15 -0.483333 0
0.133333 -0.466667 0
0.15 -0.466667 0
0.15 -0.483333 0
0.166667 -0.483333 0
0.15 -0.466667 0
0.166667 -0.466667 0
0.166667 -0.483333 0
0.183333 -0.483333 0
0.166667 -0.466667 0
0.183333 -0.466667 0
0.183333 -0.483333 0
0.2 -0.483333 0
0.183333 -0.466667 0
0.2 -0.466667 0
0.2 -0.483333 0
0.216667 -0.483333 0
0.2 -0.466667 0
0.216667 -0.466667 0
0.216667 -0.483333 0
0.233333 -0.483333 0
0.216667 -0.466667 0
0.233333 -0.466667 0
0.233333 -0.483333 0
0.25 -0.483333 0
0.233333 -0.466667 0
0.25 -0.466667 0
0.25 -0.483333 0
0.266667 -0.483333 0
0.25 -0.466667 0
0.266667 -0.466667 0
0.266667 -0.483333 0
0.283333 -0.483333 0
0.266667 -0.466667 0
0.283333 -0.466667 0
0.283333 -0.483333 0
0.3 -0.483333 0
0.283333 -0.466667 0
0.3 -0.466667 0
0.3 -0.483333 0
0.316667 -0.483333 0
0.3 -0.466667 0
0.316667 -0.466667 0
0.316667 -0.483333 0
0.333333 -0.483333 0
0.316667 -0.466667 0
0.333333 -0.466667 0
0.333333 -0.483333 0
0.35 -0.483333 0
0.333333 -0.466667 0
0.35 -0.466667 0
0.35 -0.483333 0
0.366667 -0.483333 0
0.35 -0.466667 0
0.366667 -0.466667 0
0.366667 -0.483333 0
0.383333 -0.483333 0
0.366667 -0.466667 0
0.383333 -0.466667 0
0.383333 -0.483333 0
0.4 -0.483333 0
0.383333 -0.466667 0
0.4 -0.466667 0
0.4 -0.483333 0
0.416667 -0.483333 0
0.4 -0.466667 0
0.416667 -0.466667 0
0.416667 -0.483333 0
0.433333 -0.483333 0
0.416667 -0.466667 0
0.433333 -0.466667 0
0.433333 -0.483333 0
0.45 -0.483333 0
0.433333 -0.466667 0
0.45 -0.466667 0
0.45 -0.483333 0
0.466667 -0.483333 0
0.45 -0.466667 0
0.466667 -0.466667 0
0.466667 -0.483333 0
0.483333 -0.483333 0
0.466667 -0.466667 0
0.483333 -0.466667 0
0.483333 -0.483333 0
0.5 -0.483333 0
0.483333 -0.466667 0
0.5 -0.466667 0
0.5 -0.483333 0
0.516667 -0.483333 0
0.5 -0.466667 0
0.516667 -0.466667 0
0.516667 -0.483333 0
0.533333 -0.483333 0
0.516667 -0.466667 0
0.533333 -0.466667 0
0.533333 -0.483333 0
0.55 -0.483333 0
0.533333 -0.466667 0
0.55 -0.466667 0
0.55 -0.483333 0
0.566667 -0.483333 0
0.55 -0.466667 0
0.566667 -0.466667 0
0.566667 -0.483333 0
0.583333 -0.483333 0
0.566667 -0.466667 0
0.583333 -0.466667 0
0.583333 -0.483333 0
0.6 -0.483333 0
0.583333 -0.466667 0
0.6 -0.466667 0
0.6 -0.483333 0
0.616667 -0.483333 0
0.6 -0.466667 0
0.616667 -0.466667 0
0.616667 -0.483333 0
0.633333 -0.483333 0
0.616667 -0.466667 0
0.633333 -0.466667 0
0.633333 -0.483333 0
0.65 -0.483333 0
0.633333 -0.466667 0
0.65 -0.466667 0
0.65 -0.483333 0
0.666667 -0.483333 0
0.65 -0.466667 0
0.666667 -0.466667 0
0.666667 -0.483333 0
0.683333 -0.483333 0
0.666667 -0.466667 0
0.683333 -0.466667 0
0.683333 -0.483333 0
0.7 -0.483333 0
0.683333 -0.466667 0
0.7 -0.466667 0
0.7 -0.483333 0
0.716667 -0.483333 0
0.7 -0.466667 0
0.716667 -0.466667 0
0.716667 -0.483333 0
0.733333 -0.483333 0
0.716667 -0.466667 0
0.733333 -0.466667 0
0.733333 -0.483333 0
0.75 -0.483333 0
0.733333 -0.466667 0
0.75 -0.466667 0
0.75 -0.483333 0
0.766667 -0.483333 0
0.75 -0.466667 0
0.766667 -0.466667 0
0.766667 -0.483333 0
0.783333 -0.483333 0
0.766667 -0.466667 0
0.783333 -0.466667 0
0.783333 -0.483333 0
0.8 -0.483333 0
0.783333 -0.466667 0
0.8 -0.466667 0
0.8 -0.483333 0
0.816667 -0.483333 0
0.8 -0.466667 0
0.816667 -0.466667 0
0.816667 -0.483333 0
0.833333 -0.483333 0
0.816667 -0.466667 0
0.833333 -0.466667 0
0.833333 -0.483333 0
0.85 -0.483333 0
0.833333 -0.466667 0
0.85 -0.466667 0
0.85 -0.483333 0
0.866667 -0.483333 0
0.85 -0.466667 0
0.866667 -0.466667 0
0.866667 -0.483333 0
0.883333 -0.483333 0
0.866667 -0.466667 0
0.883333 -0.466667 0
0.883333 -0.483333 0
0.9 -0.483333 0
0.883333 -0.466667 0
0.9 -0.466667 0
0.9 -0.483333 0
0.916667 -0.483333 0
0.9 -0.466667 0
0.916667 -0.466667 0
0.916667 -0.483333 0
0.933333 -0.483333 0
0.916667 -0.466667 0
0.933333 -0.466667 0
0.933333 -0.483333 0
0.95 -0.483333 0
0.933333 -0.466667 0
0.95 -0.466667 0
0.95 -0.483333 0
0.966667 -0.483333 0
0.95 -0.466667 0
0.966667 -0.466667 0
0.966667 -0.483333 0
0.983333 -0.483333 0
0.966667 -0.466667 0
0.983333 -0.466667 0
0.983333 -0.483333 0
1 -0.483333 0
0.983333 -0.466667 0
1 -0.466667 0
0 -0.466667 0
0.0166667 -0.466667 0
0 -0.45 0
0.0166667 -0.45 0
0.0166667 -0.466667 0
0.0333333 -0.466667 0
0.0166667 -0.45 0
0.0333333 -0.45 0
0.0333333 -0.466667 0
0.05 -0.466667 0
0.0333333 -0.45 0
0.05 -0.45 0
0.05 -0.466667 0
0.0666667 -0.466667 0
0.05 -0.45 0
0.0666667 -0.45 0
0.0666667 -0.466667 0
0.0833333 -0.466667 0
0.0666667 -0.45 0
0.0833333 -0.45 0
0.0833333 -0.466667 0
0.1 -0.466667 0
0.0833333 -0.45 0
0.1 -0.45 0
0.1 -0.466667 0
0.116667 -0.466667 0
0.1 -0.45 0
0.116667 -0.45 0
0.116667 -0.466667 0
0.133333 -0.466667 0
0.116667 -0.45 0
0.133333 -0.45 0
0.133333 -0.466667 0
0.15 -0.466667 0
0.133333 -0.45 0
0.15 -0.45 0
0.15 -0.466667 0
0.166667 -0.466667 0
0.15 -0.45 0
0.166667 -0.45 0
0.166667 -0.466667 0
0.183333 -0.466667 0
0.166667 -0.45 0
0.183333 -0.45 0
0.183333 -0.466667 0
0.2 -0.466667 0
0.183333 -0.45 0
0.2 -0.45 0
0.2 -0.466667 0
0.216667 -0.466667 0
0.2 -0.45 0
0.216667 -0.45 0
0.216667 -0.466667 0
0.233333 -0.466667 0
0.216667 -0.45 0
0.233333 -0.45 0
0.233333 -0.466667 0
0.25 -0.466667 0
0.233333 -0.45 0
0.25 -0.45 0
[...]
POINT_DATA 14400
SCALARS x1_displacement double 1
LOOKUP_TABLE default
0 0.000222572 0 0.000218391 0.000222572 0.000456262 0.000218391 0.000496409 0.000456262 0.000730025 0.000496409 0.000796513 0.000730025 0.00105004 0.000796513 0.00112191 0.00105004 0.00141227 0.00112191 0.00147428 0.00141227 0.00181215 0.00147428 0.00185327 0.00181215 0.00224526 0.00185327 0.00225741 0.00224526 0.00270758 0.00225741 0.00268468 0.00270758 0.00319544 0.00268468 0.00313285 0.00319544 0.00370552 0.00313285 0.00359961 0.00370552 0.00423475 0.00359961 0.00408269 0.00423475 0.00478025 0.00408269 0.00457983 0.00478025 0.00533932 0.00457983 0.00508883 0.00533932 0.00590939 0.00508883 0.00560754 0.00590939 0.00648801 0.00560754 0.00613387 0.00648801 0.0070728 0.00613387 0.00666575 0.0070728 0.00766147 0.00666575 0.00720118 0.00766147 0.00825181 0.00720118 0.0077382 0.00825181 0.00884165 0.0077382 0.0082749 0.00884165 0.0094289 0.0082749 0.00880943 0.0094289 0.0100116 0.00880943 0.00933997 0.0100116 0.0105876 0.00933997 0.00986478 0.0105876 0.0111553 0.00986478 0.0103822 0.0111553 0.0117127 0.0103822 0.0108906 0.0117127 0.0122582 0.0108906 0.0113884 0.0122582 0.0127902 0.0113884 0.0118743 0.0127902 0.0133072 0.0118743 0.0123469 0.0133072 0.0138078 0.0123469 0.0128049 0.0138078 0.0142908 0.0128049 0.0132473 0.0142908 0.0147551 0.0132473 0.0136729 0.0147551 0.0151996 0.0136729 0.0140811 0.0151996 0.0156235 0.0140811 0.0144708 0.0156235 0.0160262 0.0144708 0.0148416 0.0160262 0.016407 0.0148416 0.0151929 0.016407 0.0167656 0.0151929 0.0155242 0.0167656 0.0171016 0.0155242 0.0158354 0.0171016 0.0174148 0.0158354 0.0161262 0.0174148 0.0177054 0.0161262 0.0163967 0.0177054 0.0179733 0.0163967 0.0166469 0.0179733 0.0182188 0.0166469 0.016877 0.0182188 0.0184422 0.016877 0.0170872 0.0184422 0.018644 0.0170872 0.017278 0.018644 0.0188246 0.017278 0.0174498 0.0188246 0.0189848 0.0174498 0.0176032 0.0189848 0.0191252 0.0176032 0.0177388 0.0191252 0.0192466 0.0177388 0.0178573 0.0192466 0.01935 0.0178573 0.0179597 0.01935 0.0194364 0.0179597 0.0180466 0.0194364 0.0195068 0.0180466 0.0181192 0.0195068 0.0195625 0.0181192 0.0181785 0.0195625 0.0196048 0.0181785 0.0182256 0.0196048 0.0196351 0.0182256 0.0182618 0.0196351 0.019655 0.0182618 0.0182884 0.019655 0.0196663 0.0182884 0.0183068 0.0196663 0.0196708 0.0183068 0.0183185 0.0196708 0.0196705 0.0183185 0.0183251 0.0196705 0.0196676 0.0183251 0.0183281 0.0196676 0.0196643 0.0183281 0.0183289 0.0196643 0.019662 0.0183289 0.0183289 0.019662 0.0196614 0.0183289 0.0183291 0 0.000218391 0 0.00022314 0.000218391 0.000496409 0.00022314 0.000496526 0.000496409 0.000796513 0.000496526 0.000801107 0.000796513 0.00112191 0.000801107 0.00112571 0.00112191 0.00147428 0.00112571 0.00146908 0.00147428 0.00185327 0.00146908 0.00183112 0.00185327 0.00225741 0.00183112 0.0022115 0.00225741 0.00268468 0.0022115 0.00260941 0.00268468 0.00313285 0.00260941 0.00302368 0.00313285 0.00359961 0.00302368 0.00345288 0.00359961 0.00408269 0.00345288 0.00389546 0.00408269 0.00457983 0.00389546 0.00434976 0.00457983 0.00508883 0.00434976 0.00481408 0.00508883 0.00560754 0.00481408 0.00528668 0.00560754 0.00613387 0.00528668 0.00576583 0.00613387 0.00666575 0.00576583 0.00624981 0.00666575 0.00720118 0.00624981 0.00673688 0.00720118 0.0077382 0.00673688 0.00722536 0.0077382 0.0082749 0.00722536 0.00771356 0.0082749 0.00880943 0.00771356 0.00819985 0.00880943 0.00933997 0.00819985 0.00868263 0.00933997 0.00986478 0.00868263 0.00916034 0.00986478 0.0103822 0.00916034 0.00963149 0.0103822 0.0108906 0.00963149 0.0100946 0.0108906 0.0113884 0.0100946 0.0105484 0.0113884 0.0118743 0.0105484 0.0109915 0.0118743 0.0123469 0.0109915 0.0114227 0.0123469 0.0128049 0.0114227 0.011841 0.0128049 0.0132473 0.011841 0.0122452 0.0132473 0.0136729 0.0122452 0.0126346 0.0136729 0.0140811 0.0126346 0.0130082 0.0140811 0.0144708 0.0130082 0.0133654 0.0144708 0.0148416 0.0133654 0.0137056 0.0148416 0.0151929 0.0137056 0.0140283 0.0151929 0.0155242 0.0140283 0.0143331 0.0155242 0.0158354 0.0143331 0.0146199 0.0158354 0.0161262 0.0146199 0.0148884 0.0161262 0.0163967 0.0148884 0.0151386 0.0163967 0.0166469 0.0151386 0.0153706 0.0166469 0.016877 0.0153706 0.0155845 0.016877 0.0170872 0.0155845 0.0157806 0.0170872 0.017278 0.0157806 0.0159593 0.017278 0.0174498 0.0159593 0.0161208 0.0174498 0.0176032 0.0161208 0.0162658 0.0176032 0.0177388 0.0162658 0.0163948 0.0177388 0.0178573 0.0163948 0.0165085 0.0178573 0.0179597 0.0165085 0.0166075 0.0179597 0.0180466 0.0166075 0.0166926 0.0180466 0.0181192 0.0166926 0.0167648 0.0181192 0.0181785 0.0167648 0.0168248 0.0181785 0.0182256 0.0168248 0.0168736 0.0182256 0.0182618 0.0168736 0.0169124 0.0182618 0.0182884 0.0169124 0.0169421 0.0182884 0.0183068 0.0169421 0.0169639 0.0183068 0.0183185 0.0169639 0.0169791 0.0183185 0.0183251 0.0169791 0.0169887 0.0183251 0.0183281 0.0169887 0.016994 0.0183281 0.0183289 0.016994 0.0169963 0.0183289 0.0183289 0.0169963 0.0169971 0.0183289 0.0183291 0.0169971 0.0169979 0 0.00022314 0 0.000217804 0.00022314 0.000496526 0.000217804 0.000480869 0.000496526 0.000801107 0.000480869 0.000774359 0.000801107 0.00112571 0.000774359 0.0010886 0.00112571 0.00146908 0.0010886 0.00141872 0.00146908 0.00183112 0.00141872 0.00176317 0.00183112 0.0022115 0.00176317 0.00212134 0.0022115 0.00260941 0.00212134 0.00249272 0.00260941 0.00302368 0.00249272 0.00287665 0.00302368 0.00345288 0.00287665 0.00327228 0.00345288 0.00389546 0.00327228 0.00367857 0.00389546 0.00434976 0.00367857 0.00409434 0.00434976 0.00481408 0.00409434 0.00451834 0.00481408 0.00528668 0.00451834 0.0049492 0.00528668 0.00576583 0.0049492 0.00538553 0.00576583 0.00624981 0.00538553 0.00582591 0.00624981 0.00673688 0.00582591 0.00626887 0.00673688 0.00722536 0.00626887 0.00671297 0.00722536 0.00771356 0.00671297 0.00715675 0.00771356 0.00819985 0.00715675 0.00759878 0.00819985 0.00868263 0.00759878 0.00803765 0.00868263 0.00916034 0.00803765 0.00847197 0.00916034 0.00963149 0.00847197 0.00890041 0.00963149 0.0100946 0.00890041 0.00932168 0.0100946 0.0105484 0.00932168 0.00973455 0.0105484 0.0109915 0.00973455 0.0101379 0.0109915 0.0114227 0.0101379 0.0105305 0.0114227 0.011841 0.0105305 0.0109115 0.011841 0.0122452 0.0109115 0.0112799 0.0122452 0.0126346 0.0112799 0.0116349 0.0126346 0.0130082 0.0116349 0.0119758 0.0130082 0.0133654 0.0119758 0.0123018 0.0133654 0.0137056 0.0123018 0.0126126 0.0137056 0.0140283 0.0126126 0.0129077 0.0140283 0.0143331 0.0129077 0.0131867 0.0143331 0.0146199 0.0131867 0.0134494 0.0146199 0.0148884 0.0134494 0.0136956 0.0148884 0.0151386 0.0136956 0.0139255 0.0151386 0.0153706 0.0139255 0.0141389 0.0153706 0.0155845 0.0141389 0.0143361 0.0155845 0.0157806 0.0143361 0.0145173 0.0157806 0.0159593 0.0145173 0.0146827 0.0159593 0.0161208 0.0146827 0.0148328 0.0161208 0.0162658 0.0148328 0.014968 0.0162658 0.0163948 0.014968 0.0150888 0.0163948 0.0165085 0.0150888 0.0151958 0.0165085 0.0166075 0.0151958 0.0152895 0.0166075 0.0166926 0.0152895 0.0153707 0.0166926 0.0167648 0.0153707 0.0154401 0.0167648 0.0168248 0.0154401 0.0154984 0.0168248 0.0168736 0.0154984 0.0155464 0.0168736 0.0169124 0.0155464 0.015585 0.0169124 0.0169421 0.015585 0.015615 0.0169421 0.0169639 0.015615 0.0156374 0.0169639 0.0169791 0.0156374 0.0156531 0.0169791 0.0169887 0.0156531 0.0156631 0.0169887 0.016994 0.0156631 0.0156684 0.016994 0.0169963 0.0156684 0.0156704 0.0169963 0.0169971 0.0156704 0.0156707 0.0169971 0.0169979 0.0156707 0.0156714 0 0.000217804 0 0.000207058 0.000217804 0.000480869 0.000207058 0.000454022 0.000480869 0.000774359 0.000454022 0.000730186 0.000774359 0.0010886 0.000730186 0.00102694 0.0010886 0.00141872 0.00102694 0.00133892 0.00141872 0.00176317 0.00133892 0.00166329 0.00176317 0.00212134 0.00166329 0.0019987 0.00212134 0.00249272 0.0019987 0.00234441 0.00249272 0.00287665 0.00234441 0.00269985 0.00287665 0.00327228 0.00269985 0.00306439 0.00327228 0.00367857 0.00306439 0.00343733 0.00367857 0.00409434 0.00343733 0.00381781 0.00409434 0.00451834 0.00381781 0.0042049 0.00451834 0.0049492 0.0042049 0.00459756 0.0049492 0.00538553 0.00459756 0.00499468 0.00538553 0.00582591 0.00499468 0.00539508 0.00582591 0.00626887 0.00539508 0.00579755 0.00626887 0.00671297 0.00579755 0.00620087 0.00671297 0.00715675 0.00620087 0.00660378 0.00715675 0.00759878 0.00660378 0.00700502 0.00759878 0.00803765 0.00700502 0.00740336 0.00803765 0.00847197 0.00740336 0.00779757 0.00847197 0.00890041 0.00779757 0.00818644 0.00890041 0.00932168 0.00818644 0.00856883 0.00932168 0.00973455 0.00856883 0.00894362 0.00973455 0.0101379 0.00894362 0.00930977 0.0101379 0.0105305 0.00930977 0.00966629 0.0105305 0.0109115 0.00966629 0.0100123 0.0109115 0.0112799 0.0100123 0.0103468 0.0112799 0.0116349 0.0103468 0.0106693 0.0116349 0.0119758 0.0106693 0.010979 0.0119758 0.0123018 0.010979 0.0112753 0.0123018 0.0126126 0.0112753 0.0115577 0.0126126 0.0129077 0.0115577 0.0118259 0.0129077 0.0131867 0.0118259 0.0120796 0.0131867 0.0134494 0.0120796 0.0123187 0.0134494 0.0136956 0.0123187 0.0125428 0.0136956 0.0139255 0.0125428 0.0127522 0.0139255 0.0141389 0.0127522 0.0129468 0.0141389 0.0143361 0.0129468 0.0131267 0.0143361 0.0145173 0.0131267 0.0132922 0.0145173 0.0146827 0.0132922 0.0134436 0.0146827 0.0148328 0.0134436 0.0135812 0.0148328 0.014968 0.0135812 0.0137053 0.014968 0.0150888 0.0137053 0.0138165 0.0150888 0.0151958 0.0138165 0.0139153 0.0151958 0.0152895 0.0139153 0.0140021 0.0152895 0.0153707 0.0140021 0.0140775 0.0153707 0.0154401 0.0140775 0.0141422 0.0154401 0.0154984 0.0141422 0.0141967 0.0154984 0.0155464 0.0141967 0.0142417 0.0155464 0.015585 0.0142417 0.014278 0.015585 0.015615 0.014278 0.0143061 0.015615 0.0156374 0.0143061 0.0143269 0.0156374 0.0156531 0.0143269 0.014341 0.0156531 0.0156631 0.014341 0.0143495 0.0156631 0.0156684 0.0143495 0.0143533 0.0156684 0.0156704 0.0143533 0.0143538 0.0156704 0.0156707 0.0143538 0.0143526 0.0156707 0.0156714 0.0143526 0.0143522 0 0.000207058 0 0.000192366 0.000207058 0.000454022 0.000192366 0.000420042 0.000454022 0.000730186 0.000420042 0.000674954 0.000730186 0.00102694 0.000674954 0.000950007 0.00102694 0.00133892 0.000950007 0.00123998 0.00133892 0.00166329 0.00123998 0.00154157 0.00166329 0.0019987 0.00154157 0.00185282 0.0019987 0.00234441 0.00185282 0.00217262 0.00234441 0.00269985 0.00217262 0.00250025 0.00269985 0.00306439 0.00250025 0.00283511 0.00306439 0.00343733 0.00283511 0.00317661 0.00343733 0.00381781 0.00317661 0.00352411 0.00381781 0.0042049 0.00352411 0.00387689 0.0042049 0.00459756 0.00387689 0.00423413 0.00459756 0.00499468 0.00423413 0.00459494 0.00499468 0.00539508 0.00459494 0.00495836 0.00539508 0.00579755 0.00495836 0.0053234 0.00579755 0.00620087 0.0053234 0.00568899 0.00620087 0.00660378 0.00568899 0.00605407 0.00660378 0.00700502 0.00605407 0.00641753 0.00700502 0.00740336 0.00641753 0.00677828 0.00740336 0.00779757 0.00677828 0.00713522 0.00779757 0.00818644 0.00713522 0.00748728 0.00818644 0.00856883 0.00748728 0.00783343 0.00856883 0.00894362 0.00783343 0.00817264 0.00894362 0.00930977 0.00817264 0.00850398 0.00930977 0.00966629 0.00850398 0.00882653 0.00966629 0.0100123 0.00882653 0.00913947 0.0100123 0.0103468 0.00913947 0.00944204 0.0103468 0.0106693 0.00944204 0.00973355 0.0106693 0.010979 0.00973355 0.0100134 0.010979 0.0112753 0.0100134 0.0102811 0.0112753 0.0115577 0.0102811 0.0105362 0.0115577 0.0118259 0.0105362 0.0107783 0.0118259 0.0120796 0.0107783 0.0110073 0.0120796 0.0123187 0.0110073 0.0112229 0.0123187 0.0125428 0.0112229 0.0114251 0.0125428 0.0127522 0.0114251 0.0116139 0.0127522 0.0129468 0.0116139 0.0117894 0.0129468 0.0131267 0.0117894 0.0119516 0.0131267 0.0132922 0.0119516 0.0121009 0.0132922 0.0134436 0.0121009 0.0122374 0.0134436 0.0135812 0.0122374 0.0123615 0.0135812 0.0137053 0.0123615 0.0124735 0.0137053 0.0138165 0.0124735 0.012574 0.0138165 0.0139153 0.012574 0.0126631 0.0139153 0.0140021 0.0126631 0.0127416 0.0140021 0.0140775 0.0127416 0.0128097 0.0140775 0.0141422 0.0128097 0.0128681 0.0141422 0.0141967 0.0128681 0.0129172 0.0141967 0.0142417 0.0129172 0.0129575 0.0142417 0.014278 0.0129575 0.0129897 0.014278 0.0143061 0.0129897 0.0130142 0.0143061 0.0143269 0.0130142 0.0130318 0.0143269 0.014341 0.0130318 0.013043 0.014341 0.0143495 0.013043 0.0130486 0.0143495 0.0143533 0.0130486 0.0130497 0.0143533 0.0143538 0.0130497 0.0130476 0.0143538 0.0143526 0.0130476 0.0130441 0.0143526 0.0143522 0.0130441 0.0130417 0 0.000192366 0 0.000174916 0.000192366 0.000420042 0.000174916 0.000381125 0.000420042 0.000674954 0.000381125 0.000612462 0.000674954 0.000950007 0.000612462 0.000863125 0.000950007 0.00123998 0.000863125 0.00112843 0.00123998 0.00154157 0.00112843 0.00140498 0.00154157 0.00185282 0.00140498 0.00169056 0.00185282 0.00217262 0.00169056 0.00198374 0.00217262 0.00250025 0.00198374 0.00228358 0.00250025 0.00283511 0.00228358 0.0025894 0.00283511 0.00317661 0.0025894 0.00290065 0.00317661 0.00352411 0.00290065 0.00321674 0.00352411 0.00387689 0.00321674 0.0035371 0.00387689 0.00423413 0.0035371 0.00386104 0.00423413 0.00459494 0.00386104 0.00418786 0.00459494 0.00495836 0.00418786 0.00451674 0.00495836 0.0053234 0.00451674 0.00484686 0.0053234 0.00568899 0.00484686 0.00517729 0.00568899 0.00605407 0.00517729 0.00550711 0.00605407 0.00641753 0.00550711 0.00583536 0.00641753 0.00677828 0.00583536 0.00616105 0.00677828 0.00713522 0.00616105 0.0064832 0.00713522 0.00748728 0.0064832 0.00680085 0.00748728 0.00783343 0.00680085 0.00711305 0.00783343 0.00817264 0.00711305 0.00741887 0.00817264 0.00850398 0.00741887 0.00771744 0.00850398 0.00882653 0.00771744 0.00800794 0.00882653 0.00913947 0.00800794 0.0082896 0.00913947 0.00944204 0.0082896 0.00856173 0.00944204 0.00973355 0.00856173 0.0088237 0.00973355 0.0100134 0.0088237 0.00907497 0.0100134 0.0102811 0.00907497 0.00931509 0.0102811 0.0105362 0.00931509 0.00954366 0.0105362 0.0107783 0.00954366 0.00976041 0.0107783 0.0110073 0.00976041 0.00996512 0.0110073 0.0112229 0.00996512 0.0101577 0.0112229 0.0114251 0.0101577 0.010338 0.0114251 0.0116139 0.010338 0.0105062 0.0116139 0.0117894 0.0105062 0.0106623 0.0117894 0.0119516 0.0106623 0.0108064 0.0119516 0.0121009 0.0108064 0.0109389 0.0121009 0.0122374 0.0109389 0.0110599 0.0122374 0.0123615 0.0110599 0.0111697 0.0123615 0.0124735 0.0111697 0.0112688 0.0124735 0.012574 0.0112688 0.0113573 0.012574 0.0126631 0.0113573 0.0114358 0.0126631 0.0127416 0.0114358 0.0115047 0.0127416 0.0128097 0.0115047 0.0115643 0.0128097 0.0128681 0.0115643 0.011615 0.0128681 0.0129172 0.011615 0.0116573 0.0129172 0.0129575 0.0116573 0.0116916 0.0129575 0.0129897 0.0116916 0.0117184 0.0129897 0.0130142 0.0117184 0.0117381 0.0130142 0.0130318 0.0117381 0.0117512 0.0130318 0.013043 0.0117512 0.0117583 0.013043 0.0130486 0.0117583 0.0117602 0.0130486 0.0130497 0.0117602 0.0117578 0.0130497 0.0130476 0.0117578 0.0117524 0.0130476 0.0130441 0.0117524 0.0117458 0.0130441 0.0130417 0.0117458 0.0117405 0 0.000174916 0 0.000155451 0.000174916 0.000381125 0.000155451 0.000338707 0.000381125 0.000612462 0.000338707 0.000544985 0.000612462 0.000863125 0.000544985 0.000769571 0.000863125 0.00112843 0.000769571 0.00100839 0.00112843 0.00140498 0.00100839 0.00125825 0.00140498 0.00169056 0.00125825 0.00151683 0.00169056 0.00198374 0.00151683 0.00178255 0.00198374 0.00228358 0.00178255 0.0020543 0.00228358 0.0025894 0.0020543 0.0023313 0.0025894 0.00290065 0.0023313 0.00261293 0.00290065 0.00321674 0.00261293 0.00289866 0.00321674 0.0035371 0.00289866 0.00318793 0.0035371 0.00386104 0.00318793 0.00348019 0.00386104 0.00418786 0.00348019 0.0037748 0.00418786 0.00451674 0.0037748 0.00407109 0.00451674 0.00484686 0.00407109 0.00436832 0.00484686 0.00517729 0.00436832 0.00466571 0.00517729 0.00550711 0.00466571 0.00496244 0.00550711 0.00583536 0.00496244 0.00525764 0.00583536 0.00616105 0.00525764 0.00555043 0.00616105 0.0064832 0.00555043 0.00583991 0.0064832 0.00680085 0.00583991 0.00612521 0.00680085 0.00711305 0.00612521 0.00640545 0.00711305 0.00741887 0.00640545 0.00667977 0.00741887 0.00771744 0.00667977 0.00694737 0.00771744 0.00800794 0.00694737 0.00720748 0.00800794 0.0082896 0.00720748 0.00745939 0.0082896 0.00856173 0.00745939 0.00770247 0.00856173 0.0088237 0.00770247 0.00793613 0.0088237 0.00907497 0.00793613 0.0081599 0.00907497 0.00931509 0.0081599 0.00837335 0.00931509 0.00954366 0.00837335 0.00857615 0.00954366 0.00976041 0.00857615 0.00876807 0.00976041 0.00996512 0.00876807 0.00894893 0.00996512 0.0101577 0.00894893 0.00911866 0.0101577 0.010338 0.00911866 0.00927724 0.010338 0.0105062 0.00927724 0.00942473 0.0105062 0.0106623 0.00942473 0.00956126 0.0106623 0.0108064 0.00956126 0.009687 0.0108064 0.0109389 0.009687 0.00980218 0.0109389 0.0110599 0.00980218 0.00990706 0.0110599 0.0111697 0.00990706 0.010002 0.0111697 0.0112688 0.010002 0.0100872 0.0112688 0.0113573 0.0100872 0.0101631 0.0113573 0.0114358 0.0101631 0.0102299 0.0114358 0.0115047 0.0102299 0.0102882 0.0115047 0.0115643 0.0102882 0.0103382 0.0115643 0.011615 0.0103382 0.0103802 0.011615 0.0116573 0.0103802 0.0104147 0.0116573 0.0116916 0.0104147 0.0104419 0.0116916 0.0117184 0.0104419 0.0104623 0.0117184 0.0117381 0.0104623 0.0104761 0.0117381 0.0117512 0.0104761 0.0104839 0.0117512 0.0117583 0.0104839 0.0104862 0.0117583 0.0117602 0.0104862 0.0104836 0.0117602 0.0117578 0.0104836 0.010477 0.0117578 0.0117524 0.010477 0.0104678 0.0117524 0.0117458 0.0104678 0.0104574 0.0117458 0.0117405 0.0104574 0.0104483 0 0.000155451 0 0.000134483 0.000155451 0.000338707 0.000134483 0.000293724 0.000338707 0.000544985 0.000293724 0.000473974 0.000544985 0.000769571 0.000473974 0.000671406 0.000769571 0.00100839 0.000671406 0.000882546 0.00100839 0.00125825 0.000882546 0.00110451 0.00125825 0.00151683 0.00110451 0.00133506 0.00151683 0.00178255 0.00133506 0.00157256 0.00178255 0.0020543 0.00157256 0.0018158 0.0020543 0.0023313 0.0018158 0.00206393 0.0023313 0.00261293 0.00206393 0.00231627 0.00261293 0.00289866 0.00231627 0.00257226 0.00289866 0.00318793 0.00257226 0.00283138 0.00318793 0.00348019 0.00283138 0.00309311 0.00348019 0.0037748 0.00309311 0.00335688 0.0037748 0.00407109 0.00335688 0.00362209 0.00407109 0.00436832 0.00362209 0.00388808 0.00436832 0.00466571 0.00388808 0.00415416 0.00466571 0.00496244 0.00415416 0.00441957 0.00496244 0.00525764 0.00441957 0.00468353 0.00525764 0.00555043 0.00468353 0.00494523 0.00555043 0.00583991 0.00494523 0.00520384 0.00583991 0.00612521 0.00520384 0.00545855 0.00612521 0.00640545 0.00545855 0.00570852 0.00640545 0.00667977 0.00570852 0.00595297 0.00667977 0.00694737 0.00595297 0.00619113 0.00694737 0.00720748 0.00619113 0.00642229 0.00720748 0.00745939 0.00642229 0.00664578 0.00745939 0.00770247 0.00664578 0.006861 0.00770247 0.00793613 0.006861 0.00706743 0.00793613 0.0081599 0.00706743 0.00726461 0.0081599 0.00837335 0.00726461 0.00745218 0.00837335 0.00857615 0.00745218 0.00762985 0.00857615 0.00876807 0.00762985 0.00779743 0.00876807 0.00894893 0.00779743 0.00795479 0.00894893 0.00911866 0.00795479 0.00810189 0.00911866 0.00927724 0.00810189 0.00823876 0.00927724 0.00942473 0.00823876 0.00836551 0.00942473 0.00956126 0.00836551 0.00848229 0.00956126 0.009687 0.00848229 0.0085893 0.009687 0.00980218 0.0085893 0.00868681 0.00980218 0.00990706 0.00868681 0.00877508 0.00990706 0.010002 0.00877508 0.00885442 0.010002 0.0100872 0.00885442 0.00892516 0.0100872 0.0101631 0.00892516 0.00898761 0.0101631 0.0102299 0.00898761 0.00904211 0.0102299 0.0102882 0.00904211 0.00908898 0.0102882 0.0103382 0.00908898 0.00912853 0.0103382 0.0103802 0.00912853 0.00916104 0.0103802 0.0104147 0.00916104 0.00918683 0.0104147 0.0104419 0.00918683 0.00920615 0.0104419 0.0104623 0.00920615 0.00921932 0.0104623 0.0104761 0.00921932 0.00922663 0.0104761 0.0104839 0.00922663 0.00922846 0.0104839 0.0104862 0.00922846 0.00922527 0.0104862 0.0104836 0.00922527 0.00921766 0.0104836 0.010477 0.00921766 0.00920646 0.010477 0.0104678 0.00920646 0.00919277 0.0104678 0.0104574 0.