# vtk DataFile Version 3.0
#This file was generated by the deal.II library on 2021/2/10 at 1:09:40
ASCII
DATASET UNSTRUCTURED_GRID

POINTS 14400 double
0 -0.5 0
0.0166667 -0.5 0
0 -0.483333 0
0.0166667 -0.483333 0
0.0166667 -0.5 0
0.0333333 -0.5 0
0.0166667 -0.483333 0
0.0333333 -0.483333 0
0.0333333 -0.5 0
0.05 -0.5 0
0.0333333 -0.483333 0
0.05 -0.483333 0
0.05 -0.5 0
0.0666667 -0.5 0
0.05 -0.483333 0
0.0666667 -0.483333 0
0.0666667 -0.5 0
0.0833333 -0.5 0
0.0666667 -0.483333 0
0.0833333 -0.483333 0
0.0833333 -0.5 0
0.1 -0.5 0
0.0833333 -0.483333 0
0.1 -0.483333 0
0.1 -0.5 0
0.116667 -0.5 0
0.1 -0.483333 0
0.116667 -0.483333 0
0.116667 -0.5 0
0.133333 -0.5 0
0.116667 -0.483333 0
0.133333 -0.483333 0
0.133333 -0.5 0
0.15 -0.5 0
0.133333 -0.483333 0
0.15 -0.483333 0
0.15 -0.5 0
0.166667 -0.5 0
0.15 -0.483333 0
0.166667 -0.483333 0
0.166667 -0.5 0
0.183333 -0.5 0
0.166667 -0.483333 0
0.183333 -0.483333 0
0.183333 -0.5 0
0.2 -0.5 0
0.183333 -0.483333 0
0.2 -0.483333 0
0.2 -0.5 0
0.216667 -0.5 0
0.2 -0.483333 0
0.216667 -0.483333 0
0.216667 -0.5 0
0.233333 -0.5 0
0.216667 -0.483333 0
0.233333 -0.483333 0
0.233333 -0.5 0
0.25 -0.5 0
0.233333 -0.483333 0
0.25 -0.483333 0
0.25 -0.5 0
0.266667 -0.5 0
0.25 -0.483333 0
0.266667 -0.483333 0
0.266667 -0.5 0
0.283333 -0.5 0
0.266667 -0.483333 0
0.283333 -0.483333 0
0.283333 -0.5 0
0.3 -0.5 0
0.283333 -0.483333 0
0.3 -0.483333 0
0.3 -0.5 0
0.316667 -0.5 0
0.3 -0.483333 0
0.316667 -0.483333 0
0.316667 -0.5 0
0.333333 -0.5 0
0.316667 -0.483333 0
0.333333 -0.483333 0
0.333333 -0.5 0
0.35 -0.5 0
0.333333 -0.483333 0
0.35 -0.483333 0
0.35 -0.5 0
0.366667 -0.5 0
0.35 -0.483333 0
0.366667 -0.483333 0
0.366667 -0.5 0
0.383333 -0.5 0
0.366667 -0.483333 0
0.383333 -0.483333 0
0.383333 -0.5 0
0.4 -0.5 0
0.383333 -0.483333 0
0.4 -0.483333 0
0.4 -0.5 0
0.416667 -0.5 0
0.4 -0.483333 0
0.416667 -0.483333 0
0.416667 -0.5 0
0.433333 -0.5 0
0.416667 -0.483333 0
0.433333 -0.483333 0
0.433333 -0.5 0
0.45 -0.5 0
0.433333 -0.483333 0
0.45 -0.483333 0
0.45 -0.5 0
0.466667 -0.5 0
0.45 -0.483333 0
0.466667 -0.483333 0
0.466667 -0.5 0
0.483333 -0.5 0
0.466667 -0.483333 0
0.483333 -0.483333 0
0.483333 -0.5 0
0.5 -0.5 0
0.483333 -0.483333 0
0.5 -0.483333 0
0.5 -0.5 0
0.516667 -0.5 0
0.5 -0.483333 0
0.516667 -0.483333 0
0.516667 -0.5 0
0.533333 -0.5 0
0.516667 -0.483333 0
0.533333 -0.483333 0
0.533333 -0.5 0
0.55 -0.5 0
0.533333 -0.483333 0
0.55 -0.483333 0
0.55 -0.5 0
0.566667 -0.5 0
0.55 -0.483333 0
0.566667 -0.483333 0
0.566667 -0.5 0
0.583333 -0.5 0
0.566667 -0.483333 0
0.583333 -0.483333 0
0.583333 -0.5 0
0.6 -0.5 0
0.583333 -0.483333 0
0.6 -0.483333 0
0.6 -0.5 0
0.616667 -0.5 0
0.6 -0.483333 0
0.616667 -0.483333 0
0.616667 -0.5 0
0.633333 -0.5 0
0.616667 -0.483333 0
0.633333 -0.483333 0
0.633333 -0.5 0
0.65 -0.5 0
0.633333 -0.483333 0
0.65 -0.483333 0
0.65 -0.5 0
0.666667 -0.5 0
0.65 -0.483333 0
0.666667 -0.483333 0
0.666667 -0.5 0
0.683333 -0.5 0
0.666667 -0.483333 0
0.683333 -0.483333 0
0.683333 -0.5 0
0.7 -0.5 0
0.683333 -0.483333 0
0.7 -0.483333 0
0.7 -0.5 0
0.716667 -0.5 0
0.7 -0.483333 0
0.716667 -0.483333 0
0.716667 -0.5 0
0.733333 -0.5 0
0.716667 -0.483333 0
0.733333 -0.483333 0
0.733333 -0.5 0
0.75 -0.5 0
0.733333 -0.483333 0
0.75 -0.483333 0
0.75 -0.5 0
0.766667 -0.5 0
0.75 -0.483333 0
0.766667 -0.483333 0
0.766667 -0.5 0
0.783333 -0.5 0
0.766667 -0.483333 0
0.783333 -0.483333 0
0.783333 -0.5 0
0.8 -0.5 0
0.783333 -0.483333 0
0.8 -0.483333 0
0.8 -0.5 0
0.816667 -0.5 0
0.8 -0.483333 0
0.816667 -0.483333 0
0.816667 -0.5 0
0.833333 -0.5 0
0.816667 -0.483333 0
0.833333 -0.483333 0
0.833333 -0.5 0
0.85 -0.5 0
0.833333 -0.483333 0
0.85 -0.483333 0
0.85 -0.5 0
0.866667 -0.5 0
0.85 -0.483333 0
0.866667 -0.483333 0
0.866667 -0.5 0
0.883333 -0.5 0
0.866667 -0.483333 0
0.883333 -0.483333 0
0.883333 -0.5 0
0.9 -0.5 0
0.883333 -0.483333 0
0.9 -0.483333 0
0.9 -0.5 0
0.916667 -0.5 0
0.9 -0.483333 0
0.916667 -0.483333 0
0.916667 -0.5 0
0.933333 -0.5 0
0.916667 -0.483333 0
0.933333 -0.483333 0
0.933333 -0.5 0
0.95 -0.5 0
0.933333 -0.483333 0
0.95 -0.483333 0
0.95 -0.5 0
0.966667 -0.5 0
0.95 -0.483333 0
0.966667 -0.483333 0
0.966667 -0.5 0
0.983333 -0.5 0
0.966667 -0.483333 0
0.983333 -0.483333 0
0.983333 -0.5 0
1 -0.5 0
0.983333 -0.483333 0
1 -0.483333 0
0 -0.483333 0
0.0166667 -0.483333 0
0 -0.466667 0
0.0166667 -0.466667 0
0.0166667 -0.483333 0
0.0333333 -0.483333 0
0.0166667 -0.466667 0
0.0333333 -0.466667 0
0.0333333 -0.483333 0
0.05 -0.483333 0
0.0333333 -0.466667 0
0.05 -0.466667 0
0.05 -0.483333 0
0.0666667 -0.483333 0
0.05 -0.466667 0
0.0666667 -0.466667 0
0.0666667 -0.483333 0
0.0833333 -0.483333 0
0.0666667 -0.466667 0
0.0833333 -0.466667 0
0.0833333 -0.483333 0
0.1 -0.483333 0
0.0833333 -0.466667 0
0.1 -0.466667 0
0.1 -0.483333 0
0.116667 -0.483333 0
0.1 -0.466667 0
0.116667 -0.466667 0
0.116667 -0.483333 0
0.133333 -0.483333 0
0.116667 -0.466667 0
0.133333 -0.466667 0
0.133333 -0.483333 0
0.15 -0.483333 0
0.133333 -0.466667 0
0.15 -0.466667 0
0.15 -0.483333 0
0.166667 -0.483333 0
0.15 -0.466667 0
0.166667 -0.466667 0
0.166667 -0.483333 0
0.183333 -0.483333 0
0.166667 -0.466667 0
0.183333 -0.466667 0
0.183333 -0.483333 0
0.2 -0.483333 0
0.183333 -0.466667 0
0.2 -0.466667 0
0.2 -0.483333 0
0.216667 -0.483333 0
0.2 -0.466667 0
0.216667 -0.466667 0
0.216667 -0.483333 0
0.233333 -0.483333 0
0.216667 -0.466667 0
0.233333 -0.466667 0
0.233333 -0.483333 0
0.25 -0.483333 0
0.233333 -0.466667 0
0.25 -0.466667 0
0.25 -0.483333 0
0.266667 -0.483333 0
0.25 -0.466667 0
0.266667 -0.466667 0
0.266667 -0.483333 0
0.283333 -0.483333 0
0.266667 -0.466667 0
0.283333 -0.466667 0
0.283333 -0.483333 0
0.3 -0.483333 0
0.283333 -0.466667 0
0.3 -0.466667 0
0.3 -0.483333 0
0.316667 -0.483333 0
0.3 -0.466667 0
0.316667 -0.466667 0
0.316667 -0.483333 0
0.333333 -0.483333 0
0.316667 -0.466667 0
0.333333 -0.466667 0
0.333333 -0.483333 0
0.35 -0.483333 0
0.333333 -0.466667 0
0.35 -0.466667 0
0.35 -0.483333 0
0.366667 -0.483333 0
0.35 -0.466667 0
0.366667 -0.466667 0
0.366667 -0.483333 0
0.383333 -0.483333 0
0.366667 -0.466667 0
0.383333 -0.466667 0
0.383333 -0.483333 0
0.4 -0.483333 0
0.383333 -0.466667 0
0.4 -0.466667 0
0.4 -0.483333 0
0.416667 -0.483333 0
0.4 -0.466667 0
0.416667 -0.466667 0
0.416667 -0.483333 0
0.433333 -0.483333 0
0.416667 -0.466667 0
0.433333 -0.466667 0
0.433333 -0.483333 0
0.45 -0.483333 0
0.433333 -0.466667 0
0.45 -0.466667 0
0.45 -0.483333 0
0.466667 -0.483333 0
0.45 -0.466667 0
0.466667 -0.466667 0
0.466667 -0.483333 0
0.483333 -0.483333 0
0.466667 -0.466667 0
0.483333 -0.466667 0
0.483333 -0.483333 0
0.5 -0.483333 0
0.483333 -0.466667 0
0.5 -0.466667 0
0.5 -0.483333 0
0.516667 -0.483333 0
0.5 -0.466667 0
0.516667 -0.466667 0
0.516667 -0.483333 0
0.533333 -0.483333 0
0.516667 -0.466667 0
0.533333 -0.466667 0
0.533333 -0.483333 0
0.55 -0.483333 0
0.533333 -0.466667 0
0.55 -0.466667 0
0.55 -0.483333 0
0.566667 -0.483333 0
0.55 -0.466667 0
0.566667 -0.466667 0
0.566667 -0.483333 0
0.583333 -0.483333 0
0.566667 -0.466667 0
0.583333 -0.466667 0
0.583333 -0.483333 0
0.6 -0.483333 0
0.583333 -0.466667 0
0.6 -0.466667 0
0.6 -0.483333 0
0.616667 -0.483333 0
0.6 -0.466667 0
0.616667 -0.466667 0
0.616667 -0.483333 0
0.633333 -0.483333 0
0.616667 -0.466667 0
0.633333 -0.466667 0
0.633333 -0.483333 0
0.65 -0.483333 0
0.633333 -0.466667 0
0.65 -0.466667 0
0.65 -0.483333 0
0.666667 -0.483333 0
0.65 -0.466667 0
0.666667 -0.466667 0
0.666667 -0.483333 0
0.683333 -0.483333 0
0.666667 -0.466667 0
0.683333 -0.466667 0
0.683333 -0.483333 0
0.7 -0.483333 0
0.683333 -0.466667 0
0.7 -0.466667 0
0.7 -0.483333 0
0.716667 -0.483333 0
0.7 -0.466667 0
0.716667 -0.466667 0
0.716667 -0.483333 0
0.733333 -0.483333 0
0.716667 -0.466667 0
0.733333 -0.466667 0
0.733333 -0.483333 0
0.75 -0.483333 0
0.733333 -0.466667 0
0.75 -0.466667 0
0.75 -0.483333 0
0.766667 -0.483333 0
0.75 -0.466667 0
0.766667 -0.466667 0
0.766667 -0.483333 0
0.783333 -0.483333 0
0.766667 -0.466667 0
0.783333 -0.466667 0
0.783333 -0.483333 0
0.8 -0.483333 0
0.783333 -0.466667 0
0.8 -0.466667 0
0.8 -0.483333 0
0.816667 -0.483333 0
0.8 -0.466667 0
0.816667 -0.466667 0
0.816667 -0.483333 0
0.833333 -0.483333 0
0.816667 -0.466667 0
0.833333 -0.466667 0
0.833333 -0.483333 0
0.85 -0.483333 0
0.833333 -0.466667 0
0.85 -0.466667 0
0.85 -0.483333 0
0.866667 -0.483333 0
0.85 -0.466667 0
0.866667 -0.466667 0
0.866667 -0.483333 0
0.883333 -0.483333 0
0.866667 -0.466667 0
0.883333 -0.466667 0
0.883333 -0.483333 0
0.9 -0.483333 0
0.883333 -0.466667 0
0.9 -0.466667 0
0.9 -0.483333 0
0.916667 -0.483333 0
0.9 -0.466667 0
0.916667 -0.466667 0
0.916667 -0.483333 0
0.933333 -0.483333 0
0.916667 -0.466667 0
0.933333 -0.466667 0
0.933333 -0.483333 0
0.95 -0.483333 0
0.933333 -0.466667 0
0.95 -0.466667 0
0.95 -0.483333 0
0.966667 -0.483333 0
0.95 -0.466667 0
0.966667 -0.466667 0
0.966667 -0.483333 0
0.983333 -0.483333 0
0.966667 -0.466667 0
0.983333 -0.466667 0
0.983333 -0.483333 0
1 -0.483333 0
0.983333 -0.466667 0
1 -0.466667 0
0 -0.466667 0
0.0166667 -0.466667 0
0 -0.45 0
0.0166667 -0.45 0
0.0166667 -0.466667 0
0.0333333 -0.466667 0
0.0166667 -0.45 0
0.0333333 -0.45 0
0.0333333 -0.466667 0
0.05 -0.466667 0
0.0333333 -0.45 0
0.05 -0.45 0
0.05 -0.466667 0
0.0666667 -0.466667 0
0.05 -0.45 0
0.0666667 -0.45 0
0.0666667 -0.466667 0
0.0833333 -0.466667 0
0.0666667 -0.45 0
0.0833333 -0.45 0
0.0833333 -0.466667 0
0.1 -0.466667 0
0.0833333 -0.45 0
0.1 -0.45 0
0.1 -0.466667 0
0.116667 -0.466667 0
0.1 -0.45 0
0.116667 -0.45 0
0.116667 -0.466667 0
0.133333 -0.466667 0
0.116667 -0.45 0
0.133333 -0.45 0
0.133333 -0.466667 0
0.15 -0.466667 0
0.133333 -0.45 0
0.15 -0.45 0
0.15 -0.466667 0
0.166667 -0.466667 0
0.15 -0.45 0
0.166667 -0.45 0
0.166667 -0.466667 0
0.183333 -0.466667 0
0.166667 -0.45 0
0.183333 -0.45 0
0.183333 -0.466667 0
0.2 -0.466667 0
0.183333 -0.45 0
0.2 -0.45 0
0.2 -0.466667 0
0.216667 -0.466667 0
0.2 -0.45 0
0.216667 -0.45 0
0.216667 -0.466667 0
0.233333 -0.466667 0
0.216667 -0.45 0
0.233333 -0.45 0
0.233333 -0.466667 0
0.25 -0.466667 0
0.233333 -0.45 0
0.25 -0.45 0
[...]
POINT_DATA 14400
SCALARS x1_displacement double 1
LOOKUP_TABLE default
0 0.000161428 0 0.00014466 0.000161428 0.000330153 0.00014466 0.000328229 0.000330153 0.000522256 0.000328229 0.000523703 0.000522256 0.000740708 0.000523703 0.000732679 0.000740708 0.000982311 0.000732679 0.000955854 0.000982311 0.00124392 0.000955854 0.00119275 0.00124392 0.00152259 0.00119275 0.00144223 0.00152259 0.00181565 0.00144223 0.00170281 0.00181565 0.00212062 0.00170281 0.00197285 0.00212062 0.0024351 0.00197285 0.00225059 0.0024351 0.00275673 0.00225059 0.00253422 0.00275673 0.00308317 0.00253422 0.00282186 0.00308317 0.00341209 0.00282186 0.00311163 0.00341209 0.00374119 0.00311163 0.00340162 0.00374119 0.00406825 0.00340162 0.00369001 0.00406825 0.00439115 0.00369001 0.00397501 0.00439115 0.0047079 0.00397501 0.00425496 0.0047079 0.00501672 0.00425496 0.00452835 0.00501672 0.00531603 0.00452835 0.00479383 0.00531603 0.00560447 0.00479383 0.00505024 0.00560447 0.00588094 0.00505024 0.0052966 0.00588094 0.00614457 0.0052966 0.00553215 0.00614457 0.00639473 0.00553215 0.00575629 0.00639473 0.00663101 0.00575629 0.00596862 0.00663101 0.00685319 0.00596862 0.0061689 0.00685319 0.00706123 0.0061689 0.00635704 0.00706123 0.00725525 0.00635704 0.00653309 0.00725525 0.00743547 0.00653309 0.00669719 0.00743547 0.00760226 0.00669719 0.00684958 0.00760226 0.00775603 0.00684958 0.0069906 0.00775603 0.00789729 0.0069906 0.00712062 0.00789729 0.00802657 0.00712062 0.00724008 0.00802657 0.00814446 0.00724008 0.00734944 0.00814446 0.00825156 0.00734944 0.0074492 0.00825156 0.00834847 0.0074492 0.00753986 0.00834847 0.00843581 0.00753986 0.00762193 0.00843581 0.00851419 0.00762193 0.00769593 0.00851419 0.0085842 0.00769593 0.00776237 0.0085842 0.00864642 0.00776237 0.00782175 0.00864642 0.00870142 0.00782175 0.00787455 0.00870142 0.00874974 0.00787455 0.00792124 0.00874974 0.00879189 0.00792124 0.00796228 0.00879189 0.00882837 0.00796228 0.00799812 0.00882837 0.00885965 0.00799812 0.00802916 0.00885965 0.00888619 0.00802916 0.00805581 0.00888619 0.0089084 0.00805581 0.00807845 0.0089084 0.00892669 0.00807845 0.00809745 0.00892669 0.00894146 0.00809745 0.00811316 0.00894146 0.00895307 0.00811316 0.00812591 0.00895307 0.00896189 0.00812591 0.00813605 0.00896189 0.00896828 0.00813605 0.00814387 0.00896828 0.00897258 0.00814387 0.00814969 0.00897258 0.00897515 0.00814969 0.00815383 0.00897515 0.00897634 0.00815383 0.00815657 0.00897634 0.00897651 0.00815657 0.00815822 0.00897651 0.00897603 0.00815822 0.00815907 0.00897603 0.00897527 0.00815907 0.00815939 0.00897527 0.00897455 0.00815939 0.00815942 0.00897455 0.00897414 0.00815942 0.00815938 0.00897414 0.00897404 0.00815938 0.00815943 0 0.00014466 0 0.00013726 0.00014466 0.000328229 0.00013726 0.000305459 0.000328229 0.000523703 0.000305459 0.0004918 0.000523703 0.000732679 0.0004918 0.000688507 0.000732679 0.000955854 0.000688507 0.000894593 0.000955854 0.00119275 0.000894593 0.00110987 0.00119275 0.00144223 0.00110987 0.00133399 0.00144223 0.00170281 0.00133399 0.00156628 0.00170281 0.00197285 0.00156628 0.0018058 0.00197285 0.00225059 0.0018058 0.00205138 0.00225059 0.00253422 0.00205138 0.00230168 0.00253422 0.00282186 0.00230168 0.00255524 0.00282186 0.00311163 0.00255524 0.00281055 0.00311163 0.00340162 0.00281055 0.00306603 0.00340162 0.00369001 0.00306603 0.00332013 0.00369001 0.00397501 0.00332013 0.00357135 0.00397501 0.00425496 0.00357135 0.00381826 0.00425496 0.00452835 0.00381826 0.00405958 0.00452835 0.00479383 0.00405958 0.00429414 0.00479383 0.00505024 0.00429414 0.00452093 0.00505024 0.0052966 0.00452093 0.00473912 0.0052966 0.00553215 0.00473912 0.00494804 0.00553215 0.00575629 0.00494804 0.00514718 0.00575629 0.00596862 0.00514718 0.00533617 0.00596862 0.0061689 0.00533617 0.00551479 0.0061689 0.00635704 0.00551479 0.00568295 0.00635704 0.00653309 0.00568295 0.00584066 0.00653309 0.00669719 0.00584066 0.00598803 0.00669719 0.00684958 0.00598803 0.00612524 0.00684958 0.0069906 0.00612524 0.00625255 0.0069906 0.00712062 0.00625255 0.00637027 0.00712062 0.00724008 0.00637027 0.00647875 0.00724008 0.00734944 0.00647875 0.00657836 0.00734944 0.0074492 0.00657836 0.00666953 0.0074492 0.00753986 0.00666953 0.00675265 0.00753986 0.00762193 0.00675265 0.00682818 0.00762193 0.00769593 0.00682818 0.00689654 0.00769593 0.00776237 0.00689654 0.00695816 0.00776237 0.00782175 0.00695816 0.00701348 0.00782175 0.00787455 0.00701348 0.0070629 0.00787455 0.00792124 0.0070629 0.00710684 0.00792124 0.00796228 0.00710684 0.00714568 0.00796228 0.00799812 0.00714568 0.00717982 0.00799812 0.00802916 0.00717982 0.00720962 0.00802916 0.00805581 0.00720962 0.00723543 0.00805581 0.00807845 0.00723543 0.00725759 0.00807845 0.00809745 0.00725759 0.00727642 0.00809745 0.00811316 0.00727642 0.00729222 0.00811316 0.00812591 0.00729222 0.00730531 0.00812591 0.00813605 0.00730531 0.00731595 0.00813605 0.00814387 0.00731595 0.00732443 0.00814387 0.00814969 0.00732443 0.00733102 0.00814969 0.00815383 0.00733102 0.00733597 0.00815383 0.00815657 0.00733597 0.00733952 0.00815657 0.00815822 0.00733952 0.00734193 0.00815822 0.00815907 0.00734193 0.00734343 0.00815907 0.00815939 0.00734343 0.00734425 0.00815939 0.00815942 0.00734425 0.0073446 0.00815942 0.00815938 0.0073446 0.00734474 0.00815938 0.00815943 0.00734474 0.00734493 0 0.00013726 0 0.000124826 0.00013726 0.000305459 0.000124826 0.000276115 0.000305459 0.0004918 0.000276115 0.00044452 0.0004918 0.000688507 0.00044452 0.000623824 0.000688507 0.000894593 0.000623824 0.000810909 0.000894593 0.00110987 0.000810909 0.00100483 0.00110987 0.00133399 0.00100483 0.00120521 0.00133399 0.00156628 0.00120521 0.00141167 0.00156628 0.0018058 0.00141167 0.00162367 0.0018058 0.00205138 0.00162367 0.00184043 0.00205138 0.00230168 0.00184043 0.00206099 0.00230168 0.00255524 0.00206099 0.00228421 0.00255524 0.00281055 0.00228421 0.00250882 0.00281055 0.00306603 0.00250882 0.00273351 0.00306603 0.00332013 0.00273351 0.00295694 0.00332013 0.00357135 0.00295694 0.00317778 0.00357135 0.00381826 0.00317778 0.0033948 0.00381826 0.00405958 0.0033948 0.00360686 0.00405958 0.00429414 0.00360686 0.00381295 0.00429414 0.00452093 0.00381295 0.00401222 0.00452093 0.00473912 0.00401222 0.00420395 0.00473912 0.00494804 0.00420395 0.00438757 0.00494804 0.00514718 0.00438757 0.00456267 0.00514718 0.00533617 0.00456267 0.00472895 0.00533617 0.00551479 0.00472895 0.00488623 0.00551479 0.00568295 0.00488623 0.00503446 0.00568295 0.00584066 0.00503446 0.00517364 0.00584066 0.00598803 0.00517364 0.00530388 0.00598803 0.00612524 0.00530388 0.00542534 0.00612524 0.00625255 0.00542534 0.00553824 0.00625255 0.00637027 0.00553824 0.00564283 0.00637027 0.00647875 0.00564283 0.00573942 0.00647875 0.00657836 0.00573942 0.00582831 0.00657836 0.00666953 0.00582831 0.00590986 0.00666953 0.00675265 0.00590986 0.00598441 0.00675265 0.00682818 0.00598441 0.00605233 0.00682818 0.00689654 0.00605233 0.00611399 0.00689654 0.00695816 0.00611399 0.00616974 0.00695816 0.00701348 0.00616974 0.00621996 0.00701348 0.0070629 0.00621996 0.006265 0.0070629 0.00710684 0.006265 0.00630519 0.00710684 0.00714568 0.00630519 0.0063409 0.00714568 0.00717982 0.0063409 0.00637243 0.00717982 0.00720962 0.00637243 0.00640011 0.00720962 0.00723543 0.00640011 0.00642423 0.00723543 0.00725759 0.00642423 0.00644509 0.00725759 0.00727642 0.00644509 0.00646297 0.00727642 0.00729222 0.00646297 0.00647812 0.00729222 0.00730531 0.00647812 0.00649081 0.00730531 0.00731595 0.00649081 0.00650127 0.00731595 0.00732443 0.00650127 0.00650973 0.00732443 0.00733102 0.00650973 0.00651642 0.00733102 0.00733597 0.00651642 0.00652155 0.00733597 0.00733952 0.00652155 0.00652533 0.00733952 0.00734193 0.00652533 0.00652795 0.00734193 0.00734343 0.00652795 0.0065296 0.00734343 0.00734425 0.0065296 0.0065305 0.00734425 0.0073446 0.0065305 0.00653086 0.0073446 0.00734474 0.00653086 0.00653097 0.00734474 0.00734493 0.00653097 0.00653118 0 0.000124826 0 0.000109946 0.000124826 0.000276115 0.000109946 0.000241868 0.000276115 0.00044452 0.000241868 0.0003895 0.00044452 0.000623824 0.0003895 0.00054772 0.000623824 0.000810909 0.00054772 0.000713418 0.000810909 0.00100483 0.000713418 0.000885048 0.00100483 0.00120521 0.000885048 0.00106196 0.00120521 0.00141167 0.00106196 0.00124377 0.00141167 0.00162367 0.00124377 0.00143009 0.00162367 0.00184043 0.00143009 0.00162037 0.00184043 0.00206099 0.00162037 0.00181384 0.00206099 0.00228421 0.00181384 0.00200958 0.00228421 0.00250882 0.00200958 0.00220649 0.00250882 0.00273351 0.00220649 0.00240339 0.00273351 0.00295694 0.00240339 0.00259907 0.00295694 0.00317778 0.00259907 0.00279233 0.00317778 0.0033948 0.00279233 0.00298204 0.0033948 0.00360686 0.00298204 0.00316719 0.00360686 0.00381295 0.00316719 0.00334688 0.00381295 0.00401222 0.00334688 0.00352039 0.00401222 0.00420395 0.00352039 0.00368711 0.00420395 0.00438757 0.00368711 0.0038466 0.00438757 0.00456267 0.0038466 0.00399853 0.00456267 0.00472895 0.00399853 0.0041427 0.00472895 0.00488623 0.0041427 0.00427901 0.00488623 0.00503446 0.00427901 0.00440743 0.00503446 0.00517364 0.00440743 0.00452802 0.00517364 0.00530388 0.00452802 0.0046409 0.00530388 0.00542534 0.0046409 0.00474622 0.00542534 0.00553824 0.00474622 0.00484419 0.00553824 0.00564283 0.00484419 0.00493504 0.00564283 0.00573942 0.00493504 0.00501903 0.00573942 0.00582831 0.00501903 0.00509644 0.00582831 0.00590986 0.00509644 0.00516757 0.00590986 0.00598441 0.00516757 0.0052327 0.00598441 0.00605233 0.0052327 0.00529216 0.00605233 0.00611399 0.00529216 0.00534624 0.00611399 0.00616974 0.00534624 0.00539526 0.00616974 0.00621996 0.00539526 0.00543952 0.00621996 0.006265 0.00543952 0.00547931 0.006265 0.00630519 0.00547931 0.00551494 0.00630519 0.0063409 0.00551494 0.00554669 0.0063409 0.00637243 0.00554669 0.00557482 0.00637243 0.00640011 0.00557482 0.00559962 0.00640011 0.00642423 0.00559962 0.00562132 0.00642423 0.00644509 0.00562132 0.00564018 0.00644509 0.00646297 0.00564018 0.00565642 0.00646297 0.00647812 0.00565642 0.00567027 0.00647812 0.00649081 0.00567027 0.00568193 0.00649081 0.00650127 0.00568193 0.00569161 0.00650127 0.00650973 0.00569161 0.00569949 0.00650973 0.00651642 0.00569949 0.00570574 0.00651642 0.00652155 0.00570574 0.00571054 0.00652155 0.00652533 0.00571054 0.00571406 0.00652533 0.00652795 0.00571406 0.00571645 0.00652795 0.0065296 0.00571645 0.00571789 0.0065296 0.0065305 0.00571789 0.00571857 0.0065305 0.00653086 0.00571857 0.00571871 0.00653086 0.00653097 0.00571871 0.00571861 0.00653097 0.00653118 0.00571861 0.00571869 0 0.000109946 0 9.32613e-05 0.000109946 0.000241868 9.32613e-05 0.000204647 0.000241868 0.0003895 0.000204647 0.00032983 0.0003895 0.00054772 0.00032983 0.000464999 0.00054772 0.000713418 0.000464999 0.000607459 0.000713418 0.000885048 0.000607459 0.000755639 0.000885048 0.00106196 0.000755639 0.000908733 0.00106196 0.00124377 0.000908733 0.00106631 0.00124377 0.00143009 0.00106631 0.00122799 0.00143009 0.00162037 0.00122799 0.00139332 0.00162037 0.00181384 0.00139332 0.00156162 0.00181384 0.00200958 0.00156162 0.00173205 0.00200958 0.00220649 0.00173205 0.00190358 0.00220649 0.00240339 0.00190358 0.00207508 0.00240339 0.00259907 0.00207508 0.00224537 0.00259907 0.00279233 0.00224537 0.00241331 0.00279233 0.00298204 0.00241331 0.00257783 0.00298204 0.00316719 0.00257783 0.00273798 0.00316719 0.00334688 0.00273798 0.00289298 0.00334688 0.00352039 0.00289298 0.00304218 0.00352039 0.00368711 0.00304218 0.00318512 0.00368711 0.0038466 0.00318512 0.00332146 0.0038466 0.00399853 0.00332146 0.00345098 0.00399853 0.0041427 0.00345098 0.00357359 0.0041427 0.00427901 0.00357359 0.00368927 0.00427901 0.00440743 0.00368927 0.00379806 0.00440743 0.00452802 0.00379806 0.00390008 0.00452802 0.0046409 0.00390008 0.00399546 0.0046409 0.00474622 0.00399546 0.0040844 0.00474622 0.00484419 0.0040844 0.00416709 0.00484419 0.00493504 0.00416709 0.00424376 0.00493504 0.00501903 0.00424376 0.00431465 0.00501903 0.00509644 0.00431465 0.00438001 0.00509644 0.00516757 0.00438001 0.00444009 0.00516757 0.0052327 0.00444009 0.00449515 0.0052327 0.00529216 0.00449515 0.00454546 0.00529216 0.00534624 0.00454546 0.00459127 0.00534624 0.00539526 0.00459127 0.00463284 0.00539526 0.00543952 0.00463284 0.00467044 0.00543952 0.00547931 0.00467044 0.0047043 0.00547931 0.00551494 0.0047043 0.00473466 0.00551494 0.00554669 0.00473466 0.00476178 0.00554669 0.00557482 0.00476178 0.00478586 0.00557482 0.00559962 0.00478586 0.00480713 0.00559962 0.00562132 0.00480713 0.00482579 0.00562132 0.00564018 0.00482579 0.00484204 0.00564018 0.00565642 0.00484204 0.00485608 0.00565642 0.00567027 0.00485608 0.00486807 0.00567027 0.00568193 0.00486807 0.00487818 0.00568193 0.00569161 0.00487818 0.00488656 0.00569161 0.00569949 0.00488656 0.00489337 0.00569949 0.00570574 0.00489337 0.00489874 0.00570574 0.00571054 0.00489874 0.0049028 0.00571054 0.00571406 0.0049028 0.00490569 0.00571406 0.00571645 0.00490569 0.00490754 0.00571645 0.00571789 0.00490754 0.00490848 0.00571789 0.00571857 0.00490848 0.00490871 0.00571857 0.00571871 0.00490871 0.00490844 0.00571871 0.00571861 0.00490844 0.00490799 0.00571861 0.00571869 0.00490799 0.00490778 0 9.32613e-05 0 7.53721e-05 9.32613e-05 0.000204647 7.53721e-05 0.000165423 0.000204647 0.00032983 0.000165423 0.000267251 0.00032983 0.000464999 0.000267251 0.000378172 0.000464999 0.000607459 0.000378172 0.000496149 0.000607459 0.000755639 0.000496149 0.000619875 0.000755639 0.000908733 0.000619875 0.000748615 0.000908733 0.00106631 0.000748615 0.000881947 0.00106631 0.00122799 0.000881947 0.00101952 0.00122799 0.00139332 0.00101952 0.00116087 0.00139332 0.00156162 0.00116087 0.00130535 0.00156162 0.00173205 0.00130535 0.00145209 0.00173205 0.00190358 0.00145209 0.00160004 0.00190358 0.00207508 0.00160004 0.00174802 0.00207508 0.00224537 0.00174802 0.00189482 0.00224537 0.00241331 0.00189482 0.00203925 0.00241331 0.00257783 0.00203925 0.00218027 0.00257783 0.00273798 0.00218027 0.00231696 0.00273798 0.00289298 0.00231696 0.00244861 0.00289298 0.00304218 0.00244861 0.00257468 0.00304218 0.00318512 0.00257468 0.00269482 0.00318512 0.00332146 0.00269482 0.00280881 0.00332146 0.00345098 0.00280881 0.00291655 0.00345098 0.00357359 0.00291655 0.00301807 0.00357359 0.00368927 0.00301807 0.00311345 0.00368927 0.00379806 0.00311345 0.00320281 0.00379806 0.00390008 0.00320281 0.00328632 0.00390008 0.00399546 0.00328632 0.00336418 0.00399546 0.0040844 0.00336418 0.0034366 0.0040844 0.00416709 0.0034366 0.00350379 0.00416709 0.00424376 0.00350379 0.00356599 0.00424376 0.00431465 0.00356599 0.00362343 0.00431465 0.00438001 0.00362343 0.00367632 0.00438001 0.00444009 0.00367632 0.00372491 0.00444009 0.00449515 0.00372491 0.00376941 0.00449515 0.00454546 0.00376941 0.00381005 0.00454546 0.00459127 0.00381005 0.00384706 0.00459127 0.00463284 0.00384706 0.00388065 0.00463284 0.00467044 0.00388065 0.00391102 0.00467044 0.0047043 0.00391102 0.00393838 0.0047043 0.00473466 0.00393838 0.00396293 0.00473466 0.00476178 0.00396293 0.00398486 0.00476178 0.00478586 0.00398486 0.00400435 0.00478586 0.00480713 0.00400435 0.00402157 0.00480713 0.00482579 0.00402157 0.00403668 0.00482579 0.00484204 0.00403668 0.00404983 0.00484204 0.00485608 0.00404983 0.00406118 0.00485608 0.00486807 0.00406118 0.00407085 0.00486807 0.00487818 0.00407085 0.00407897 0.00487818 0.00488656 0.00407897 0.00408565 0.00488656 0.00489337 0.00408565 0.00409101 0.00489337 0.00489874 0.00409101 0.00409514 0.00489874 0.0049028 0.00409514 0.00409814 0.0049028 0.00490569 0.00409814 0.00410011 0.00490569 0.00490754 0.00410011 0.00410116 0.00490754 0.00490848 0.00410116 0.0041014 0.00490848 0.00490871 0.0041014 0.00410101 0.00490871 0.00490844 0.00410101 0.00410019 0.00490844 0.00490799 0.00410019 0.00409924 0.00490799 0.00490778 0.00409924 0.00409858 0 7.53721e-05 0 5.66562e-05 7.53721e-05 0.000165423 5.66562e-05 0.000124836 0.000165423 0.000267251 0.000124836 0.000202731 0.000267251 0.000378172 0.000202731 0.000288646 0.000378172 0.000496149 0.000288646 0.000381267 0.000496149 0.000619875 0.000381267 0.000479734 0.000619875 0.000748615 0.000479734 0.000583559 0.000748615 0.000881947 0.000583559 0.000692446 0.000881947 0.00101952 0.000692446 0.0008061 0.00101952 0.00116087 0.0008061 0.000924073 0.00116087 0.00130535 0.000924073 0.00104567 0.00130535 0.00145209 0.00104567 0.00116994 0.00145209 0.00160004 0.00116994 0.00129571 0.00160004 0.00174802 0.00129571 0.00142165 0.00174802 0.00189482 0.00142165 0.00154644 0.00189482 0.00203925 0.00154644 0.0016688 0.00203925 0.00218027 0.0016688 0.00178763 0.00218027 0.00231696 0.00178763 0.00190205 0.00231696 0.00244861 0.00190205 0.00201138 0.00244861 0.00257468 0.00201138 0.00211521 0.00257468 0.00269482 0.00211521 0.00221328 0.00269482 0.00280881 0.00221328 0.00230553 0.00280881 0.00291655 0.00230553 0.00239201 0.00291655 0.00301807 0.00239201 0.00247283 0.00301807 0.00311345 0.00247283 0.00254819 0.00311345 0.00320281 0.00254819 0.00261832 0.00320281 0.00328632 0.00261832 0.00268344 0.00328632 0.00336418 0.00268344 0.00274382 0.00336418 0.0034366 0.00274382 0.00279969 0.0034366 0.00350379 0.00279969 0.00285129 0.00350379 0.00356599 0.00285129 0.00289886 0.00356599 0.00362343 0.00289886 0.00294263 0.00362343 0.00367632 0.00294263 0.0029828 0.00367632 0.00372491 0.0029828 0.00301959 0.00372491 0.00376941 0.00301959 0.0030532 0.00376941 0.00381005 0.0030532 0.00308382 0.00381005 0.00384706 0.00308382 0.00311163 0.00384706 0.00388065 0.00311163 0.00313683 0.00388065 0.00391102 0.00313683 0.00315956 0.00391102 0.00393838 0.00315956 0.00318001 0.00393838 0.00396293 0.00318001 0.00319832 0.00396293 0.00398486 0.00319832 0.00321464 0.00398486 0.00400435 0.00321464 0.00322911 0.00400435 0.00402157 0.00322911 0.00324186 0.00402157 0.00403668 0.00324186 0.00325301 0.00403668 0.00404983 0.00325301 0.00326267 0.00404983 0.00406118 0.00326267 0.00327094 0.00406118 0.00407085 0.00327094 0.00327793 0.00407085 0.00407897 0.00327793 0.00328371 0.00407897 0.00408565 0.00328371 0.00328837 0.00408565 0.00409101 0.00328837 0.00329197 0.00409101 0.00409514 0.00329197 0.00329459 0.00409514 0.00409814 0.00329459 0.00329628 0.00409814 0.00410011 0.00329628 0.00329711 0.00410011 0.00410116 0.00329711 0.00329717 0.00410116 0.0041014 0.00329717 0.00329656 0.0041014 0.00410101 0.00329656 0.00329542 0.00410101 0.00410019 0.00329542 0.00329393 0.00410019 0.00409924 0.00329393 0.00329237 0.00409924 0.00409858 0.00329237 0.00329111 0 5.66562e-05 0 3.73945e-05 5.66562e-05 0.000124836 3.73945e-05 8.33208e-05 0.000124836 0.000202731 8.33208e-05 0.000136874 0.000202731 0.000288646 0.000136874 0.000197242 0.000288646 0.000381267 0.000197242 0.000263847 0.000381267 0.000479734 0.000263847 0.000336381 0.000479734 0.000583559 0.000336381 0.000414738 0.000583559 0.000692446 0.000414738 0.000498866 0.000692446 0.0008061 0.000498866 0.000588604 0.0008061 0.000924073 0.000588604 0.000683537 0.000924073 0.00104567 0.000683537 0.000782907 0.00104567 0.00116994 0.000782907 0.000885612 0.00116994 0.00129571 0.000885612 0.000990269 0.00129571 0.00142165 0.000990269 0.00109534 0.00142165 0.00154644 0.00109534 0.00119927 0.00154644 0.0016688 0.00119927 0.00130064 0.0016688 0.00178763 0.00130064 0.00139827 0.00178763 0.00190205 0.00139827 0.00149125 0.00190205 0.00201138 0.00149125 0.001579 0.00201138 0.00211521 0.001579 0.0016612 0.00211521 0.00221328 0.0016612 0.00173773 0.00221328 0.00230553 0.00173773 0.00180868 0.00230553 0.00239201 0.00180868 0.00187425 0.00239201 0.00247283 0.00187425 0.00193468 0.00247283 0.00254819 0.00193468 0.00199029 0.00254819 0.00261832 0.00199029 0.00204139 0.00261832 0.00268344 0.00204139 0.00208829 0.00268344 0.00274382 0.00208829 0.00213128 0.00274382 0.00279969 0.00213128 0.00217066 0.00279969 0.00285129 0.00217066 0.00220668 0.00285129 0.00289886 0.00220668 0.00223959 0.00289886 0.00294263 0.00223959 0.0022696 0.00294263 0.0029828 0.0022696 0.00229693 0.0029828 0.00301959 0.00229693 0.00232177 0.00301959 0.0030532 0.00232177 0.0